% Model:              Final Design Simulation.mph
% Version:            COMSOL 6.2.0.339
% Date:               Sep 3 2025, 13:32
% Dimension:          3
% Nodes:              23921
% Expressions:        1
% Description:        Slice
% x                       y                        z                        Electric potential
2.875                     -0.08144401808321958     -0.05666956779215766     0.10806261123865102
2.875                     -0.0798158551236531      -0.057497018703463756    0.10808698032526338
2.875                     -0.08096058201127834     -0.05781228951747178     0.10806925752861624
2.875                     -0.08149122552594593     -0.057958434781137574    0.10805956944096276
2.8749999999999996        -0.07999868230344284     -0.059992913732100445    0.10807598898610558
2.8749999999999996        -0.08292323770568315     -0.05588090475968692     0.10803826606062751
2.875                     -0.0797499250996845      -0.060331993557271625    0.10807900839359408
2.8749999999999996        -0.07968167010915414     -0.05756364977029836     0.1080889806272305
2.875                     -0.0760615614680836      -0.06492025005371507     0.10810904257775027
2.875                     -0.0757509025455544      -0.06488772342747313     0.1081131929804231
2.875                     -0.07585514022621272     -0.06515554665009127     0.10810995920116782
2.875                     -0.07207786695476308     -0.06548909172420461     0.10815516588517261
2.875                     -0.07106145434668161     -0.06565550402917406     0.1081657446801361
2.875                     -0.07126933100040195     -0.06620044356464122     0.10815905954533309
2.875                     -0.07224307118939476     -0.06598435864392418     0.10814953311088349
2.875                     -0.06815191621554523     -0.06691318672779585     0.10818679790349708
2.875                     -0.06791060247082151     -0.06617137771975024     0.10819544971991403
2.875                     -0.07146471002556881     -0.06993643948742        0.10812569434379835
2.875                     -0.07015793869046688     -0.06891894811661717     0.10815018643558463
2.875                     -0.07060363467814257     -0.07081755975911153     0.10812759027702443
2.875                     -0.07180710517619622     -0.06866094726112751     0.10813343265119332
2.875                     -0.06845271626995918     -0.06916422141205494     0.10816406424841925
2.8749999999999996        -0.06932768899204764     -0.07020121019752645     0.10814570495100702
2.875                     -0.06988119590350464     -0.06774005691761206     0.10816315258039738
2.875                     -0.07018776583243651     -0.07122151538547693     0.10812743633099386
2.8750000000000004        -0.07242326560098564     -0.0689555697510291      0.10812460759684506
2.875                     -0.06775280948110829     -0.06833293789911005     0.10817802286918193
2.875                     -0.06820887585672332     -0.07032660712028839     0.10815561578238032
2.875                     -0.06803763718475372     -0.06957804662989735     0.10816476874405509
2.875                     -0.06873614816348396     -0.0726315491755995      0.10812839967423626
2.875                     -0.07203128809577011     -0.06735917457860743     0.10814137601850773
2.875                     -0.07426982508864383     -0.06696262451026096     0.10811898009652149
2.875                     -0.0729253255538469      -0.06841370906345168     0.10812264186327909
2.875                     -0.06721653419242052     -0.07403102417975307     0.10812557460271313
2.875                     -0.0666313389385173      -0.07273099996275692     0.1081443575978257
2.8750000000000004        -0.06673762554700306     -0.07447207084772083     0.10812517367916472
2.875                     -0.0662504973898564      -0.07409364822787326     0.10813294258049841
2.875                     -0.06702215254860451     -0.07130650293370988     0.10815658752800583
2.875                     -0.0659369875106966      -0.07517018033826413     0.10812251606496898
2.875                     -0.04631243647094423     -0.08582479965276937     0.10801579804718597
2.875                     -0.0459545616287299      -0.08690979841477225     0.10799410413088147
2.875                     -0.04744084753027965     -0.08601676290196995     0.10801363984499511
2.8749999999999996        -0.046931847948288655    -0.08690909689837967     0.10799622668897514
2.875                     -0.0467259623465571      -0.08457107904944379     0.10804009824521485
2.875                     -0.048298354664038895    -0.08455119313901846     0.1080425367055833
2.875                     -0.04575176702822804     -0.08891408596026357     0.10795344079657625
2.875                     -0.04531935737964268     -0.08883559967985766     0.10795408309020083
2.875                     -0.05026732868200679     -0.08607141424286524     0.10801590644453493
2.875                     -0.04905392921517274     -0.08513456314171088     0.10803329427409765
2.8750000000000004        -0.05017888778046768     -0.08649287883675527     0.10800785916424126
2.875                     -0.047983148157283606    -0.08773606722959554     0.10798304030519046
2.875                     -0.05054484438435044     -0.08628568077127127     0.10801225289220144
2.875                     -0.050517403688051965    -0.0860679190362478      0.1080161214386122
2.875                     -0.05090454360261152     -0.08606780065137148     0.10801585100484357
2.875                     -0.05174730273325608     -0.08441961746966441     0.10804441586414307
2.875                     -0.05030138055811037     -0.08435361954947071     0.10804808250359278
2.875                     -0.0524853601735054      -0.08298637994058312     0.10806958008491035
2.875                     -0.05282248214201719     -0.082985310775564       0.1080695414947743
2.875                     -0.05306273891207        -0.0847605199320381      0.10803967357459543
2.875                     -0.05013323393988998     -0.08301925474605147     0.10807082038803437
2.875                     -0.05407213094918056     -0.0829642022275728      0.10806767723159796
2.875                     -0.055181519635511364    -0.08339027976371158     0.10805864483813236
2.8749999999999996        -0.05553464975610019     -0.08316190640231393     0.10806207689713904
2.875                     -0.05478916360273702     -0.08087737373469048     0.108100314744692
2.875                     -0.05739303497747841     -0.08028887508577383     0.10810319233448831
2.875                     -0.056947814380624906    -0.07934209162894237     0.10811885054522749
2.875                     -0.0549055418871461      -0.08109440743400714     0.1080965623237731
2.875                     -0.05795843478113771     -0.0814912255259457      0.10808260248649981
2.875                     -0.0598683788393027      -0.07969405406282529     0.1081007232447481
2.8749999999999996        -0.059992913732099265    -0.07999868230344365     0.1080955925553246
2.875                     -0.05588090475968954     -0.08292323770568125     0.10806469982550312
2.8749999999999996        -0.053766115978020126    -0.07895865947755305     0.10813256068393025
2.8749999999999996        -0.060331993557271646    -0.07974992509968441     0.10809804297396931
2.8749999999999996        -0.054549142480039205    -0.08104808228025712     0.10809850294685203
2.875                     -0.05459952752877748     -0.08115615366034847     0.10809658542851161
2.8749999999999996        -0.05359247282242703     -0.07899611224591786     0.10813254952523568
2.875                     -0.045379870173365824    -0.08911042241538526     0.1079488909507632
2.875                     -0.04500235534993381     -0.08929572711677011     0.10794356102554868
2.875                     -0.03181986400058652     -0.09480240637760261     0.10773511837608768
2.875                     -0.032109050912274825    -0.09364483713186339     0.10776581575176677
2.875                     -0.0294162037742887      -0.09557000483344084     0.10768964943708292
2.8749999999999996        -0.029800818413357372    -0.09325539049234821     0.10775188573589156
2.875                     -0.034199888681633824    -0.09396438943833052     0.10777627781990158
2.875                     -0.029655564651947207    -0.09322979229113279     0.10775110428646055
2.875                     -0.02901559373654758     -0.0956979379094218      0.10768248027251216
2.875                     -0.028611391606254543    -0.09581402370586431     0.10767461505765126
2.875                     -0.025393308185547712    -0.09578463318628064     0.10763727668741745
2.875                     -0.026186178824647965    -0.0965105384844758      0.10762866536101001
2.875                     -0.027302190550304806    -0.09417275597837688     0.10770157229053581
2.875                     -0.02730903490622294     -0.09416689139381429     0.10770180681191485
2.875                     -0.023741515154924935    -0.09713536599253048     0.10757863789257431
2.875                     -0.03956975136639644     -0.08958483539424118     0.10791502269406633
2.875                     -0.03751093302900854     -0.09041362227946118     0.10788333656470533
2.875                     -0.038527781528094565    -0.09107346123195062     0.10787509151512595
2.875                     -0.040007444343254164    -0.09141635377826929     0.10787664559451199
2.875                     -0.03966986219886752     -0.09178911101801372     0.10786616732619837
2.875                     -0.037343273861417975    -0.09276572587605333     0.10783018909599276
2.875                     -0.03692849856356396     -0.09105274566849661     0.1078655319478066
2.875                     -0.04005762692179841     -0.09162634187499763     0.10787239502155486
2.875                     -0.03930488824366982     -0.08847652042421919     0.10793672890755744
2.875                     -0.03498894723321943     -0.09367343508095223     0.10778970268238514
2.875                     -0.03542045715667777     -0.09267090532506732     0.10781608655899574
2.875                     -0.0404404325629124      -0.09145222951070642     0.10787786375612327
2.875                     -0.04085602430933441     -0.09041419878697915     0.10790198832429056
2.875                     -0.04157623308131472     -0.08863633564454776     0.10794381259856707
2.875                     -0.04232056789436664     -0.08869541591845194     0.10794643866328334
2.875                     -0.042737266409462335    -0.09040755532502012     0.1079130420744735
2.875                     -0.04422300572203984     -0.08882256652667822     0.1079504769759727
2.875                     -0.040812172985366234    -0.08669758079720331     0.10798065813443611
2.875                     -0.04289684567170463     -0.08799635445486924     0.10796276232746448
2.8749999999999996        -0.040800562528663646    -0.08669034735695266     0.10798075545801662
2.875                     -0.03653982264919987     -0.09074862520070125     0.10786954503325541
2.875                     -0.036874225623699866    -0.0901743568355384      0.10788458957359365
2.875                     -0.038309222211709466    -0.08771004518925965     0.10794724051320707
2.8750000000000004        -0.03459655946183085     -0.09382471994844392     0.10778335646112147
2.875                     -0.034711862588535924    -0.09307208736885828     0.10780160878531682
2.875                     -0.00882021688629054     -0.09961025938164562     0.10725233899714856
2.875                     -0.007637435163684916    -0.09852102277279805     0.10726062685903597
2.875                     -0.006303797636252885    -0.09979579652327823     0.10719204780962378
2.875                     -0.009260397901762581    -0.09890161199344001     0.10728328111313525
2.875                     -0.011330084548447502    -0.09935073252110124     0.10730951539882867
2.875                     -0.006841236654626957    -0.09832651477667831     0.1072505257431077
2.875                     -0.005884394427885549    -0.09982671938021905     0.10718242200716781
2.875                     -0.034295684617597966    -0.09359889580165201     0.10778606920569855
2.875                     -0.032267321429186785    -0.09207505928782073     0.1078056546445277
2.875                     -0.03024516304058534     -0.09055588421754407     0.10782163063944633
2.875                     -0.029744983984461026    -0.09239576627095669     0.10777209949836297
2.875                     -0.029664032253478703    -0.09315081384422193     0.10775319309962386
2.8749999999999996        -0.029964825351820313    -0.09034527656661454     0.10782406502208762
2.875                     0.014666393712459924     -0.09891863775583973     0.10667745003572637
2.875                     0.016316302061313723     -0.0962818756209653      0.10672184823524855
2.875                     0.017156640676254057     -0.09851187009218879     0.10661466869631017
2.875                     0.014105360200618498     -0.09788546450866428     0.1067312931892696
2.875                     0.012165252666519053     -0.0992519294316948      0.1067389941860772
2.875                     0.016362403455362644     -0.0962479853545512      0.10672169840722671
2.875                     0.01757168183691558      -0.09844407548157552     0.10660461578729309
2.875                     0.021246201623853538     -0.0964428603510161      0.10656206931742634
2.875                     0.01931428957340396      -0.09648019176367593     0.10662191979296481
2.875                     0.02003457105301497      -0.09577770585448467     0.10662483022311744
2.875                     0.020461742502780485     -0.09788420247287012     0.10653412559015915
2.8750000000000004        0.018929041216853692     -0.09600880613691219     0.10665199837670666
2.8750000000000004        0.017939935335522437     -0.0977833835016349      0.10661718243746347
2.875                     0.017984547646349724     -0.09836409362318421     0.10659439885551189
2.875                     0.019282518080065047     -0.09537462525471604     0.10666377311843496
2.875                     0.022923738537468402     -0.09733160370516948     0.10647315010476965
2.875                     0.032013683176521784     -0.09204677943545964     0.1063648776377554
2.875                     0.03156984648484538      -0.09293570936360152     0.1063457870991068
2.875                     0.030583359008863928     -0.09102196070443022     0.10645409986365922
2.875                     0.029740451966453613     -0.09251213769071989     0.1064263000992118
2.875                     0.03399533703180231      -0.09346662259775021     0.10623666648582948
2.875                     0.02856368589337665      -0.09224815748006636     0.10647677999552888
2.875                     0.02956635703650892      -0.09029328485993975     0.10651679019904994
2.875                     0.05174297935761539      -0.08342907627537166     0.1059642032372425
2.875                     0.05161428951248903      -0.08369093804991336     0.10595836605412663
2.875                     0.05148141832661266      -0.08359282166896762     0.10596806745325811
2.875                     0.053509619170602644     -0.08342533850725833     0.10589320725178221
2.875                     0.05306273891206929      -0.08476051993203855     0.10585501548158294
2.875                     0.05108500913806992      -0.08473258655397534     0.10593591649797081
2.875                     0.050904543602617085     -0.08606780065136813     0.10588706528150799
2.875                     0.0551815196355029       -0.08339027976371703     0.10582499264471167
2.875                     0.05153745235912673      -0.08343171132018963     0.10597251553157341
2.875                     0.05054484438434998      -0.08628568077127155     0.10589262456695608
2.875                     0.04658128477677431      -0.08706426651103577     0.1060191817411352
2.875                     0.05017888778046142      -0.08649287883675884     0.10589848898316409
2.875                     0.047983148157283065     -0.08773606722959582     0.10593574651393882
2.875                     0.047339909683029466     -0.08530494156784174     0.10606176601234837
2.875                     0.049419872176189046     -0.08575829782027049     0.1059594524558353
2.875                     0.04785356809763061      -0.08502402006556442     0.10605333062379514
2.875                     0.04575176702823218      -0.08891408596026136     0.10597469701016053
2.875                     0.047530758402140674     -0.0848726880339069      0.10607207419955153
2.875                     0.05397632101248726      -0.0820309344844889      0.1059333013437903
2.875                     0.05323187379419702      -0.08249698174811625     0.10594453620794644
2.875                     0.05285829452279285      -0.081219516118234       0.10601137224460168
2.875                     0.05535622607386913      -0.08303241371670224     0.10583299219702129
2.875                     0.05241799226887538      -0.08089996256666322     0.10604284929252958
2.875                     0.05553464975609934      -0.08316190640231448     0.10582031983594688
2.875                     0.06921098352781724      -0.0677942163783133      0.10590237009700398
2.875                     0.06945689771055369      -0.06694022715307012     0.10592801695224377
2.875                     0.07008572826143228      -0.06750926594256496     0.10587741143279406
2.875                     0.07046070205979439      -0.0684020821188909      0.10582410153420665
2.875                     0.07041724246842485      -0.07040782878386351     0.10573949575831046
2.875                     0.06910226301318328      -0.06976463716015803     0.10582423546443993
2.875                     0.07087405771573965      -0.06936836463441691     0.10576451542631105
2.875                     0.07081755975911051      -0.0706036346781436      0.10571428882015377
2.875                     0.06993643948740925      -0.07146471002557933     0.10571447984115688
2.875                     0.06899241428117553      -0.07175550544418109     0.10574269812009823
2.875                     0.07122151538548092      -0.07018776583243239     0.10571469640364833
2.875                     0.06895556975102801      -0.07242326560098668     0.10571558633709265
2.875                     0.07140271608716492      -0.06814394882209018     0.10579472853051647
2.875                     0.07094025272546879      -0.06792107844140695     0.10582449421893804
2.875                     0.072631549175599        -0.0687361481634845      0.10571745334011018
2.875                     0.05918579881077671      -0.078096048757961       0.10588514624137682
2.875                     0.058861052137083696     -0.07899437422243354     0.10586000296160357
2.875                     0.05819951063657237      -0.07879751960284145     0.10589583066442576
2.875                     0.0600364505056155       -0.0793234777942955      0.10579629838605056
2.875                     0.05999291373208947      -0.07999868230345085     0.10576930447312238
2.875                     0.05795843478113699      -0.08149122552594623     0.10579150914863014
2.875                     0.05726410240258455      -0.08048990329180294     0.10586284376257629
2.875                     0.058859861154864176     -0.0776257442310563      0.10591819619927485
2.875                     0.05588090475969647      -0.08292323770567642     0.10581600628668973
2.875                     0.06033199355727104      -0.07974992509968488     0.10576591945567333
2.875                     0.06262945849905964      -0.07557481177198747     0.10584824306553084
2.875                     0.06136220604463151      -0.07751356220670014     0.10581876921646932
2.875                     0.06242322887563169      -0.07549357452394366     0.10586035489741384
2.875                     0.06265326918019579      -0.07793951411853858     0.10574646632480669
2.875                     0.060332862934887946     -0.07717395785006163     0.1058769895999685
2.8750000000000004        0.0603321113867917       -0.07940079604419288     0.10578068227520857
2.875                     0.06066360436056496      -0.07949129495950634     0.10576292923328565
2.875                     0.060333700347372614     -0.07469270333765235     0.10598031084660495
2.875                     0.06459639564319429      -0.07632984041816354     0.10573253270598149
2.875                     0.06696262451025961      -0.074269825088645       0.10572148592144445
2.875                     0.06762563897645131      -0.07244295688265585     0.10577105475440587
2.875                     0.0684137090634561       -0.07292532555384279     0.10571684425881313
2.875                     0.06566824354598796      -0.0731845696578279      0.10582301435978378
2.875                     0.06856243332976143      -0.07209489543465648     0.1057465450403737
2.875                     0.06598495305849553      -0.07144572497111913     0.10588341622443594
2.875                     0.06685069954794506      -0.07066515685984526     0.10588059599329423
2.875                     0.06515554665010087      -0.07585514022620422     0.10572930140165591
2.875                     0.06623026811881544      -0.07014693682079773     0.10592799215213415
2.875                     0.0640416591313984       -0.0730543556491122      0.105896547103348
2.8749999999999996        0.06340479164439274      -0.0702883713488806      0.10603729159613998
2.875                     0.0646320380579483       -0.075618435108878       0.1057613647171641
2.8749999999999996        0.06332276411911793      -0.06993211694474442     0.10605560887784286
2.875                     0.07178674507906305      -0.06697648327470407     0.10582833505381722
2.875                     0.07374485943039905      -0.06638235062991613     0.10577003868030435
2.8749999999999996        0.07393175678964116      -0.06691867570694555     0.10573943183967316
2.875                     0.07403102417975725      -0.067216534192416       0.10572204775184349
2.875                     0.07447207084772085      -0.06673762554700305     0.10572395294471912
2.875                     0.07517018033825905      -0.06593698751070248     0.1057280072241817
2.875                     0.07207101309122868      -0.06602749480103617     0.10585657836629211
2.875                     0.07299575740967545      -0.06570461538146441     0.10583138159981142
2.875                     0.0754781885880465       -0.06483786127223612     0.10576209786770589
2.875                     0.076257620121639        -0.06468983980026347     0.10573538069888583
2.875                     0.0744972555612107       -0.060497111021048613    0.10598487194824636
2.875                     0.07352156709093355      -0.057934556897814626    0.10612956965913352
2.875                     0.07416291226354799      -0.058237982722471715    0.1060906977790392
2.875                     -0.09361393609676488     0.03270811681460727      0.10617791002702873
2.875                     -0.0955700048334417      0.029416203774287566     0.10621752269084744
2.875                     -0.09480240637760311     0.03181986400058659      0.10616241594235035
2.875                     -0.09317191594400606     0.030984804906697416     0.10625745420300171
2.875                     -0.0939643894383306      0.034199888681635066     0.10610776326767958
2.875                     -0.09316365952320879     0.0309538158255135       0.10625891141158705
2.875                     -0.09569793790942228     0.029015593736547687     0.10622688633494963
2.875                     -0.09581402370586437     0.028611391606256076     0.10623627826160409
2.875                     -0.09380466792314196     0.02859027359722936      0.10631687435050372
2.875                     -0.09328678825367238     0.028348546982025595     0.10634606369795202
2.875                     -0.0965105384844763      0.02618617882464802      0.10629499327696706
2.875                     -0.09314675660304442     0.02844247484884654      0.10634834670238287
2.875                     -0.09318502047342356     0.028301451343297306     0.10635168673047868
2.875                     -0.09528090060381358     0.025909016885537983     0.10635278670625564
2.875                     -0.09713536599253182     0.023741515154921622     0.10635363211587971
2.875                     -0.09307668859246716     0.028426734179931683     0.10635161892916785
2.875                     0.04227403250839905      -0.08782010879322555     0.10615462138833398
2.875                     0.04320578380790469      -0.08820720287988018     0.1061037370919159
2.875                     0.04229339925047088      -0.08863850335868105     0.10612097138365764
2.875                     0.04307192169406056      -0.08883587500707825     0.10608318117669738
2.875                     0.041031697442444254     -0.08730398334437461     0.10622297991852199
2.875                     0.04081137196753272      -0.0882816596786968      0.10619210989923011
2.875                     0.04500235534992859      -0.0892957271167727      0.10598833381231366
2.875                     0.044991640465225094     -0.08894913321260771     0.10600299199167325
2.875                     0.041345136741298784     -0.08980921074385124     0.10610967251981684
2.875                     0.04273726640946189      -0.09040755532502034     0.10603212708609917
2.875                     0.040544662182121105     -0.08946516260968593     0.10615501916341233
2.875                     0.0401445975040039       -0.0912404170061687      0.10609714158464834
2.875                     0.04044043256291618      -0.0914522295107047      0.10607721040294966
2.875                     0.040057626921798095     -0.09162634187499777     0.1060849209986308
2.875                     0.03454653303560233      -0.09361585234854435     0.10621121123631445
2.875                     0.034199888681629875     -0.09396438943833194     0.10620987901171423
2.875                     0.03181986400058611      -0.09480240637760276     0.10626419951264648
2.875                     0.029476306214914535     -0.09498340842104465     0.10633960424956004
2.875                     0.029416203774290613     -0.0955700048334402      0.10631884525839543
2.875                     0.028985466547000897     -0.09546795254745223     0.10633799019228286
2.875                     0.02864637090655817      -0.09287935949301071     0.10645037917170552
2.875                     0.029015593736547253     -0.09569793790942188     0.10632813387993822
2.875                     0.034596559461830365     -0.09382471994844413     0.10620120988773758
2.875                     0.034988947233222545     -0.09367343508095105     0.10619263338841385
2.875                     0.045379870173365235     -0.08911042241538557     0.10598139479473041
2.875                     -0.07389583389004428     0.06528331737281655      0.10571176374952852
2.875                     -0.07259150101151862     0.06676723950557657      0.10570571886313246
2.8749999999999996        -0.07322397844249642     0.0652684710838252       0.10574184969233799
2.875                     -0.07426982508864527     0.06696262451026018      0.10562381826507869
2.8749999999999996        -0.07194095300803802     0.066691504832852        0.10573786113759222
2.875                     -0.07216403890500477     0.06773871147941965      0.10568235216375116
2.875                     -0.07335080009018352     0.06795450509091464      0.10562107724950674
2.875                     -0.07163359119513432     0.06524869137960258      0.10581143498230161
2.875                     -0.07572476891556297     0.0653041550267444       0.105630301662424
2.875                     -0.07242326560098925     0.06895556975102608      0.10561926562024686
2.875                     -0.0706523747921474      0.07076768502675299      0.10561816285960761
2.875                     -0.07061911310658062     0.07076980385502714      0.10561955677198011
2.875                     -0.07060363467814755     0.07081755975910733      0.10561817719735239
2.875                     -0.07059331703592199     0.07077092689696113      0.10562063232531678
2.875                     -0.07121434712962749     0.06741591578641769      0.10573827659979032
2.875                     -0.07058009493216671     0.07084042517191802      0.1056182133438475
2.875                     -0.06689072474203146     0.0722417995038624       0.10572034030651413
2.875                     -0.06749407139513185     0.07164027543518955      0.10571959380455187
2.875                     -0.06756189693046928     0.0719843437285286       0.10570238497881002
2.8749999999999996        -0.06763592176469518     0.07239918359879882      0.10568057853342366
2.875                     -0.07046593407582942     0.07087038050457989      0.1056219262311713
2.875                     -0.06597580781822174     0.07204857091113254      0.10576744551172555
2.875                     -0.06873614816348797     0.0726315491755965       0.10562266725165534
2.875                     -0.0655235288125172      0.0742011885945619       0.10569479138519414
2.875                     -0.06685413262606403     0.07277485487126478      0.10569897519623529
2.875                     -0.06673762554700613     0.07447207084771887      0.10563068595060145
2.875                     -0.06570587240296874     0.0733035966424777       0.10572569601330326
2.875                     -0.06767702327456981     0.07360694084515373      0.10562648605754629
2.875                     -0.0651671432449931      0.07584143946380847      0.1056394710952664
2.875                     -0.06503071336047625     0.07385732229138796      0.10573177198247635
2.875                     -0.06473016893810295     0.07364985730248047      0.10575335550018244
2.875                     -0.06470678619706377     0.07412298825669601      0.10573421140068716