% Model:              Final Design Simulation.mph
% Version:            COMSOL 6.2.0.339
% Date:               Sep 3 2025, 13:31
% Dimension:          3
% Nodes:              25404
% Expressions:        1
% Description:        Slice
% x                       y                        z                        Electric potential
2.85                      -0.05054484438434656     -0.08628568077127355     0.11667476842276643
2.8500000000000005        -0.04898861822832231     -0.08558210129900762     0.11667840139616222
2.8499999999999996        -0.04908101796889948     -0.08711447303316189     0.11665294492293236
2.85                      -0.07312756934846532     -0.06720961897947803     0.11681571561881149
2.8499999999999996        -0.07038328827080104     -0.06780302571347512     0.11683744521229934
2.8499999999999996        -0.07104267068830239     -0.06817556283068253     0.11682999518562764
2.8499999999999996        -0.07104792978664104     -0.06706585614329905     0.11683490439051206
2.85                      -0.0724232656009891      -0.06895556975102549     0.11681500544401913
2.85                      -0.07398901189467318     -0.06726569913212349     0.11680804115715841
2.8499999999999996        -0.06883879274390313     -0.06693041841328257     0.11685298199305648
2.8499999999999996        -0.06907826536688559     -0.06910410641532468     0.11683866813829492
2.85                      -0.06918456291667105     -0.07000860743932277     0.11683244323502551
2.85                      -0.07055734303291249     -0.07018424904502492     0.11682179575905559
2.8499999999999996        -0.07115411125983903     -0.07025426866423354     0.11681665434176147
2.8499999999999996        -0.07060363467814462     -0.07081755975910947     0.11681798581426794
2.85                      -0.06940310763302222     -0.07198369581255122     0.1168173375957939
2.85                      -0.05028958667253189     -0.08438642784250404     0.11670308747877925
2.8500000000000005        -0.05198364125731164     -0.08541416029172244     0.11669295049807465
2.85                      -0.07551613106996477     -0.06383017309138954     0.11680483560023766
2.85                      -0.07495588043840237     -0.06271047696023317     0.11681460390867852
2.85                      -0.07435060001868277     -0.06646198426165875     0.11680801096302187
2.8500000000000005        -0.07471439125798118     -0.06645586994585187     0.11680420196226846
2.8500000000000005        -0.07426982508864731     -0.06696262451025713     0.11680713312317467
2.85                      -0.07401594584481572     -0.06646196811545943     0.11681135690541103
2.8499999999999996        -0.0740947849777191      -0.06366553823086454     0.11681999411853915
2.85                      -0.07606156146808685     -0.06492025005371126     0.11679686948369587
2.8499999999999996        -0.07418476262842956     -0.06116934950789196     0.11682532745509082
2.8499999999999996        -0.07271302602969681     -0.06520759369690209     0.11682890253542189
2.85                      -0.07116856655682319     -0.06371911233605841     0.11684810497260917
2.85                      -0.07142552433071811     -0.06350189125204019     0.1168462481586666
2.85                      -0.0703442251905463      -0.06441597518036718     0.11685168919159403
2.8500000000000005        -0.05232257637633919     -0.08464896889714525     0.11670677661844873
2.8500000000000005        -0.0530069955835644      -0.08443796655981617     0.11671252379934367
2.85                      -0.05283380191772953     -0.08343579818443753     0.11672602772233437
2.85                      -0.05306273891206628     -0.08476051993204045     0.11670736423086246
2.8500000000000005        -0.054122129273810236    -0.08407539984786216     0.11671904058519413
2.85                      -0.055534649756097454    -0.08316190640231574     0.11673613332340671
2.85                      -0.05308742382471595     -0.08282198898319541     0.11673599183430317
2.85                      -0.051800164234172066    -0.08287746911983807     0.11673116089814645
2.8499999999999996        -0.05014031113174684     -0.08338233031072939     0.11671889960118995
2.85                      -0.04991618268044541     -0.0818747368793561      0.1167406116697296
2.85                      -0.050218184729439244    -0.08117951917765985     0.1167522202862554
2.85                      -0.0527040647741679      -0.08260253858387509     0.11673821799532927
2.8499999999999996        -0.04977512128288773     -0.0809258915402506      0.11675442215661067
2.8499999999999996        -0.0683348900316652      -0.07246183624562573     0.1168212683615265
2.85                      -0.06873614816348414     -0.0726315491755993      0.11681769475825796
2.8499999999999996        -0.06821152885858985     -0.06950220228556785     0.11684269460749239
2.8499999999999996        -0.06823140114842094     -0.06997897064292183     0.11683909858136993
2.85                      -0.06810361640580917     -0.06691320809881855     0.11685844876475551
2.8499999999999996        -0.0683677568977627      -0.07297081584328129     0.1168168423617702
2.85                      -0.061347085678131796    -0.07579717752387369     0.11682162391887188
2.85                      -0.06404494354896102     -0.07678938529307475     0.11680306304445906
2.85                      -0.0643302708547577      -0.07586127142290831     0.11681154868092505
2.85                      -0.06137229663705758     -0.0767497674391372      0.11681190941107458
2.8499999999999996        -0.06304077933305796     -0.07443987980096886     0.11683097671147194
2.8499999999999996        -0.06253530005152397     -0.07803419921717536     0.11679593967717114
2.85                      -0.061299011670365       -0.0732456944803136      0.11684639912110809
2.85                      -0.06147006333359795     -0.07270849768289502     0.11685121211174009
2.85                      -0.06468983980026281     -0.0762576201216395      0.11680681653063042
2.8500000000000005        -0.061417366214518945    -0.07890473993590225     0.11678772903372688
2.85                      -0.0613444002524698      -0.07266395090864938     0.11685207061830685
2.85                      -0.0649864126858676      -0.07445682180250184     0.11682301757704752
2.85                      -0.06483277689590326     -0.07283399371550131     0.11683677883566873
2.85                      -0.06510505903000294     -0.07589557326426699     0.11680810264603775
2.85                      -0.06673762554700238     -0.07447207084772145     0.11681476029098206
2.85                      -0.06526957254826211     -0.07285355903469103     0.1168345925393227
2.85                      -0.06526233070718382     -0.07251405178907724     0.11683746536042305
2.85                      -0.06481521910841989     -0.07252165007202234     0.11683969073127161
2.85                      -0.061468433332605106    -0.07257852586176139     0.1168524013690541
2.85                      0.027398785215482495     -0.09616228109516109     0.11470085886664966
2.85                      0.028552704341251917     -0.09454741415264911     0.11472032610896413
2.85                      0.029015593736546316     -0.09569793790942217     0.11465619395203586
2.8500000000000005        0.006154359264609437     -0.09908457982014339     0.11534565939218104
2.8500000000000005        0.0075620072612345435    -0.09970302795246466     0.11527799417610946
2.85                      0.005884394427885465     -0.09982671938021905     0.11532848388168
2.85                      9.312660698063485E-4     -0.0975376843010024      0.11555582055096683
2.85                      0.0037612263409484504    -0.09745434908686139     0.11547422823244127
2.85                      3.4706746715990934E-4    -0.09908233564959895     0.11552118346676701
2.85                      0.003797450367495605     -0.0976558417160436      0.11546635337997396
2.8499999999999996        0.0016819843469155862    -0.099975240261605       0.11545125235896482
2.85                      0.0029434726071479187    -0.09995667045780834     0.11541501887360861
2.8500000000000005        0                        -0.09999999999999964     0.11550134790190972
2.85                      0.003729614917228788     -0.09728110429670639     0.11548081150512919
2.85                      0.0015618036022379633    -0.09587051042314791     0.11559132642228613
2.8499999999999996        0.00420386767320434      -0.09990097713884034     0.115377668413915
2.8499999999999996        -5.399198773625973E-4    -0.09845614067625566     0.11556736819294816
2.85                      -0.0029434726071479547   -0.09995667045780834     0.11558654731110919
2.8499999999999996        -0.0016819843469156064   -0.099975240261605       0.1155497640641608
2.85                      -0.0020871525492690522   -0.0976558417160436      0.11563614837848618
2.85                      -0.0018986942013358198   -0.09745434908686139     0.11563732336623665
2.85                      -0.0017338498687440496   -0.09728110429670639     0.1156382456093003
2.8499999999999996        -0.004203867673204419    -0.09990097713884033     0.11562194535317383
2.85                      0.0038734632837490656    -0.0974510439911121      0.11547103409517251
2.85                      0.003925764815115177     -0.097512832014656       0.11546725810844954
2.85                      -0.00196322148304925     -0.09739945056593098     0.11564095448701446
2.85                      -0.00208137789684795     -0.09746041439007457     0.11564227897898335
2.85                      -0.005169726596349372    -0.0990538746260228      0.11567569232123256
2.85                      -0.005884394427885594    -0.09982671938021903     0.11567093478750452
2.8500000000000005        -0.029295983270324986    -0.09478228199237981     0.11629868929172732
2.85                      -0.02901559373654633     -0.09569793790942216     0.11627280181795623
2.8500000000000005        -0.03061803388740237     -0.09518620560553298     0.11630829888774778
2.8500000000000005        -0.02622240338522318     -0.09397979412255471     0.1162690639203145
2.8500000000000005        -0.026800530409046355    -0.0950567225051075      0.11625200657429943
2.85                      -0.027389425999549147    -0.09366314618595593     0.11629667205522232
2.85                      -0.027752618849199634    -0.09411760225938386     0.11629145619399861
2.8500000000000005        -0.027398785215485024    -0.09616228109516034     0.11623420384552058
2.85                      -0.02598445400692522     -0.09190513234934394     0.11631653523320795
2.8499999999999996        -0.025401220484118754    -0.09246462109681465     0.11629277803681674
2.85                      -0.025678719414775637    -0.09154835210167044     0.11632002699975523
2.85                      -0.008253858259319605    -0.09899571425608417     0.11575786508319115
2.8499999999999996        -0.008820216886290377    -0.09961025938164564     0.11575360028116927
2.8499999999999996        -0.009099248434258682    -0.0992291116683104      0.11577195089596347
2.8500000000000005        -0.009425892679801848    -0.09776323167759596     0.11582404177468497
2.8499999999999996        -0.010224138868963145    -0.09769254915392056     0.11584606774925502
2.8500000000000005        -0.010075150717405782    -0.09948049595136962     0.11578767152740445
2.85                      -0.010716011175639065    -0.09821368097165084     0.11584189778555612
2.8499999999999996        -0.009865255321616813    -0.09731231706351069     0.11584853643712792
2.8500000000000005        -0.007562007261234566    -0.09970302795246466     0.1157178943745402
2.85                      -0.011748395825501107    -0.09930747804434101     0.11583489010281574
2.85                      -0.008122723454081684    -0.09684616364302663     0.11582003270161356
2.8499999999999996        -0.009742756185961531    -0.0955346727827884      0.11589785375482053
2.85                      -0.007292138170155447    -0.09795216982185953     0.11576600632636236
2.85                      -0.006817031522137338    -0.09858482115638437     0.11573387135076109
2.8500000000000005        -0.030136190362262585    -0.09246612832376787     0.11636558686404141
2.8500000000000005        -0.030853057702057842    -0.09393696552189518     0.11634160141381875
2.85                      -0.031070165352433066    -0.09273651263489521     0.11637213400490956
2.85                      -0.029917591880158967    -0.09306872699394775     0.11634873114962163
2.85                      -0.03139746913796071     -0.09101022174644349     0.11641599227991357
2.85                      -0.03084678477195133     -0.09050727096028104     0.11641997275869043
2.85                      -0.03181986400058527     -0.09480240637760302     0.11633552117682092
2.8499999999999996        -0.032031859694913005    -0.09418989047064236     0.11635236187715128
2.8499999999999996        -0.03272740190293846     -0.09218027104073312     0.11640813779694759
2.85                      -0.03300987634114103     -0.09438339790795569     0.11636036324379817
2.8500000000000005        -0.03367999368379321     -0.09301834298714001     0.1164007789826506
2.85                      -0.03459655946182985     -0.0938247199484443      0.11639519644170686
2.85                      -0.04005762692179621     -0.0916263418749986      0.11650360887457785
2.8500000000000005        -0.038837932417697715    -0.09061990111929413     0.11651114357142518
2.8500000000000005        -0.03850656803017271     -0.09227741844702095     0.11647286303217806
2.8499999999999996        -0.041588849486154794    -0.09092989241787809     0.11653092773610974
2.85                      -0.04006042209892578     -0.09078581984450007     0.11652012188887624
2.8500000000000005        -0.045140235005402235    -0.08438954447184945     0.11667810921664765
2.85                      -0.045276410415596484    -0.08694437713670854     0.11663465218306762
2.85                      -0.04786096643989671     -0.08523265875104753     0.11667938211521783
2.85                      -0.04791832425220165     -0.08707350249274827     0.11664856729570316
2.85                      -0.045124571756683794    -0.08438469066361033     0.11667811045746504
2.85                      -0.045185082010017495    -0.0869408043407434      0.1166342318342182
2.85                      -0.045189662194976596    -0.0869918200282561      0.11663338236364279
2.85                      -0.04510027256534434     -0.08703407610300676     0.11663194335693171
2.85                      -0.045138336758299605    -0.08706330690109892     0.11663165953419445
2.85                      -0.045200222628534834    -0.08710944579734983     0.11663125478330931
2.8500000000000005        -0.043869810879724566    -0.08985164122088213     0.11657067312913283
2.8499999999999996        -0.04273726640946024     -0.09040755532502112     0.11655209919190608
2.85                      -0.04267314082953354     -0.08974463496305127     0.1165641058421111
2.85                      -0.04537987017336424     -0.08911042241538608     0.1165970665567628
2.8500000000000005        -0.04686745759272545     -0.08832507659494561     0.11661990482665523
2.8499999999999996        -0.047983148157280414    -0.08773606722959726     0.11663776268533524
2.85                      -0.041191647716355       -0.08897540547222632     0.11656610752405203
2.8499999999999996        -0.04253326781697538     -0.08682827560275402     0.11661766834636811
2.8499999999999996        -0.04311616067446514     -0.08589541341289905     0.1166386949503716
2.8499999999999996        -0.0364274702546265      -0.08836397619842891     0.1165322783395879
2.85                      -0.03573547637763197     -0.09109230957513705     0.11646790525779688
2.8499999999999996        -0.0380995494149538      -0.08992885662062793     0.11651827881037424
2.85                      -0.03570581916148656     -0.09110690505302717     0.11646727854016302
2.85                      -0.03632386445746501     -0.0883217970782228      0.1165320301043046
2.85                      -0.03572698757002281     -0.09112701395541728     0.116467087089077
2.85                      -0.037670537787013125    -0.09194141806658089     0.1164715300071514
2.8499999999999996        -0.03633393103754652     -0.08827643387807152     0.11653308569670395
2.85                      -0.03570356173015243     -0.09111707775404465     0.11646702843737926
2.85                      -0.03734327386141614     -0.09276572587605406     0.11645105591248725
2.85                      -0.0361661105472856      -0.09321958047851556     0.11642675030471705
2.85                      -0.013481200200061187    -0.09748919935675229     0.11592737169391203
2.85                      -0.015028463559027141    -0.09828057581438301     0.1159397253995968
2.85                      -0.015660922189560906    -0.09716601798661842     0.11598630042614558
2.85                      -0.016317932054748047    -0.09760547481920641     0.11598848520989231
2.8500000000000005        -0.01591151719439399     -0.0987152539240082      0.11594623258777412
2.85                      -0.017571681836915175    -0.09844407548157559     0.11599108685976875
2.85                      -0.014562682359724688    -0.09643143389189665     0.11598360073402189
2.85                      -0.012963007212805655    -0.09723261840964362     0.11592339023597162
2.85                      -0.013013662306030233    -0.09777988290441643     0.11590889793245178
2.8499999999999996        -0.014666393712459647    -0.09891863775583976     0.11591392959093215
2.8499999999999996        -0.012749279183853749    -0.09759771926800116     0.11590836636968455
2.85                      -0.01244349700724224     -0.09812007160381214     0.11588552272599295
2.8500000000000005        -0.01341582318945241     -0.0990852835937722      0.11587976667458465
2.85                      -0.012733911716759996    -0.0954083866952678      0.11597055974675408
2.85                      -0.025327734195914317    -0.09439275966730427     0.11624482277615886
2.85                      -0.02643497407580598     -0.09601487253256283     0.11622287916629287
2.8499999999999996        -0.02489418018779401     -0.0937653268772782      0.11625331541049624
2.85                      -0.024500800785612648    -0.09477445941771226     0.11622124848012574
2.8500000000000005        -0.025383549729418194    -0.09583541854515752     0.11620958021538419
2.8500000000000005        -0.0241718252414704      -0.09561837733705433     0.11619419008230429
2.8500000000000005        -0.024963846989749537    -0.09682295223851259     0.1161766911067929
2.8499999999999996        -0.02618617882464685     -0.0965105384844761      0.1162065599464025
2.85                      -0.023334071209943477    -0.09723950391054664     0.11613761899253644
2.8499999999999996        -0.060729467491246164    -0.07564275874594607     0.11682482793521543
2.8499999999999996        -0.06056411029884802     -0.076338704436369       0.1168180331821386
2.85                      -0.06096986272212043     -0.07605807510519742     0.11682048537305595
2.8500000000000005        -0.06003914055055166     -0.07854816644180423     0.11679432100482241
2.85                      -0.06033199355726464     -0.07974992509968973     0.11678072609787188
2.85                      -0.05778093776075618     -0.08023256241282042     0.11677594046262123
2.8499999999999996        -0.0558594204236988      -0.0807408139978527      0.11676912130965418
2.85                      -0.05795843478113204     -0.08149122552594976     0.11676038234956827
2.85                      -0.05640082946334814     -0.07962862955787788     0.1167830568566335
2.85                      -0.05517905950575823     -0.08049758046575166     0.11677232859043185
2.8500000000000005        -0.05534664276692815     -0.08175322914802871     0.11675455226559917
2.8500000000000005        -0.05691966977038694     -0.08220723161583193     0.11674951699583824
2.85                      -0.05498202169894005     -0.07902123813440662     0.11679067271950079
2.8500000000000005        -0.058975674256632894    -0.08074495391468414     0.11676847084567503
2.85                      -0.05828185715899317     -0.07903658775473721     0.11679136187698516
2.85                      -0.05757773140634244     -0.07879158981443818     0.11679465850677354
2.85                      -0.05541166620142648     -0.07803791547180833     0.11680396531211379
2.85                      -0.054546468392106445    -0.07790522356656263     0.11680497181937344
2.8499999999999996        -0.019850168375633782    -0.09563904770480369     0.11611319067977227
2.8500000000000005        -0.02169274052016041     -0.09760790308901172     0.11609565915095876
2.8500000000000005        -0.022700696091926625    -0.09633707664492161     0.11614891335062102
2.85                      -0.01960098559745009     -0.09663993018654707     0.11608164431450921
2.85                      -0.021908751430792163    -0.09520872089689092     0.11616459202713222
2.8499999999999996        -0.020461742502780034    -0.09788420247287022     0.11606551460384915
2.85                      -0.02048135737118552     -0.09318168938902739     0.11618954241119601
2.8500000000000005        -0.020483883178834417    -0.09317858121518663     0.11618967270837208
2.8500000000000005        -0.019223145074527388    -0.09812414804803447     0.11603331090963823
2.8499999999999996        -0.01917842736481774     -0.09602909860916845     0.11609048095155033
2.85                      -0.01878505509346149     -0.09624959074432105     0.11607581340933719
2.85                      -0.01902755674427801     -0.09581100668240541     0.11609301493791063
2.8500000000000005        -0.020482257950654847    -0.09317818323403489     0.11618965249582432
2.85                      0.016504532208252497     -0.09713955887627618     0.11506896798045256
2.8499999999999996        0.01757168183691517      -0.09844407548157559     0.1149831031584176
2.85                      0.015911517194392214     -0.09871525392400851     0.11503159642521577
2.85                      0.017846773803197623     -0.09580239794144506     0.11507197111741671
2.85                      0.018965402547855344     -0.09491024158260504     0.11506496755894238
2.85                      0.019085506889683124     -0.09639446553651837     0.11500402691172047
2.85                      0.017916853481606227     -0.09512943058811454     0.11509479453612315
2.85                      0.019223145074530133     -0.09812414804803395     0.11493410347957947
2.85                      0.01823190255599086      -0.09210404938528335     0.115194151855946
2.85                      0.018762601102984385     -0.09235016797911827     0.1151659873042988
2.8500000000000005        0.022133941997621254     -0.09595592669296146     0.11490985409760726
2.8500000000000005        0.021692740520158214     -0.09760790308901224     0.11486293719408501
2.85                      0.020461742502780142     -0.09788420247287019     0.11489863907071801
2.85                      0.02079804816812042      -0.09452714480260006     0.1150147163563349
2.85                      0.023334071209943574     -0.0972395039105466      0.11481596269831078
2.85                      0.018427242725519086     -0.09177733488049106     0.11519920135889472
2.8500000000000005        0.026368005577175696     -0.0942761520231776      0.11481558307786002
2.85                      0.026186178824646914     -0.09651053848447608     0.11473484531109521
2.85                      0.02446110035216563      -0.0946661109422284      0.11487386772254542
2.8500000000000005        0.025779873989916494     -0.09319485937349048     0.11488075087940841
2.8500000000000005        0.024963846989751903     -0.09682295223851198     0.11476889223679654
2.85                      0.023461618692378047     -0.0957501175790174      0.11486872541748261
2.8499999999999996        0.023630502022004715     -0.09377804789980332     0.11493948411297561
2.85                      0.023908034880904868     -0.09053726541859299     0.11505136599379273
2.85                      0.02458359567231835      -0.09101102408233658     0.11500810829489132
2.85                      0.026274110374309816     -0.09251723615776629     0.11488831923166541
2.8500000000000005        0.026754662195969756     -0.09294539744840823     0.11485344693435044
2.85                      0.026302119206379846     -0.09306120952395915     0.11486656555470863
2.85                      0.039568499348294095     -0.09037844431286687     0.11444302146155991
2.85                      0.04158884948615752      -0.09092989241787686     0.11433290342280139
2.8499999999999996        0.040057626921796374     -0.09162634187499852     0.11436958738763883
2.8499999999999996        0.038506568030170406     -0.09227741844702192     0.11440731883345119
2.85                      0.037451452695048584     -0.09172305626906643     0.11447513351912067
2.85                      0.0352663956399874       -0.09054707228309693     0.1146144490054041
2.85                      0.038476560622154724     -0.08925480545785192     0.1145364711082013
2.8499999999999996        0.036919272602841446     -0.0876523077305881      0.11466602153057175
2.85                      0.034974796588798485     -0.09039297725066803     0.11463251273897444
2.85                      0.03637539265966618      -0.08709263838103057     0.11471083732580821
2.85                      0.037343273861416344     -0.09276572587605397     0.11443615650164944
2.8499999999999996        0.03616611054728801      -0.09321958047851461     0.1144656348946416
2.85                      0.03488399911264075      -0.09121678209044738     0.1146022417309916
2.85                      0.034943485646629684     -0.09067706120088599     0.11462232947530432
2.8499999999999996        0.03459655946183007      -0.09382471994844423     0.1145065218534816
2.8499999999999996        0.02928090455434284      -0.09253051672714621     0.11477242585056768
2.85                      0.029646485603301992     -0.0921431197995845      0.11477349298222791
2.85                      0.029864230282429134     -0.09282493898825428     0.11473700734787885
2.85                      0.029303717139190312     -0.09225816799644442     0.11478256101045628
2.8499999999999996        0.030618033887405045     -0.0951862056055321      0.11461183307089189
2.8499999999999996        0.02938261165502134      -0.09131628344501891     0.11481633971646389
2.8500000000000005        0.03153923888438759      -0.09177396446014283     0.11471525218728887
2.85                      0.03154683778575456      -0.09437910359357558     0.11460782385117989
2.8500000000000005        0.03154098768278185      -0.09047184836647615     0.11476644534081265
2.85                      0.03271491909004008      -0.09154466430267935     0.11467715954011243
2.85                      0.03234152706621583      -0.09366896266521843     0.1146049027290084
2.85                      0.02982236130355738      -0.08890125424435656     0.11489479362605041
2.8499999999999996        0.03369558512742484      -0.09244086159878612     0.11460050768613739
2.85                      0.031819864000585424     -0.09480240637760298     0.11457978884452402
2.85                      0.03201149927725904      -0.09438603072495007     0.11458967743106858
2.8499999999999996        0.03300987634113899      -0.09438339790795641     0.11454809652694552
2.8499999999999996        0.042090171886003974     -0.08746791832483071     0.11446006831913935
2.8500000000000005        0.03943779726154231      -0.08878847473204267     0.11451622098389752
2.85                      0.039268174284783464     -0.08672503886840881     0.11460861629298767
2.8500000000000005        0.04176856634097362      -0.08973549168230648     0.11437596936543748
2.85                      0.0391862931883382       -0.0857289686768167      0.11465334695222164
2.85                      0.04217236095371289      -0.08691567292687652     0.11447954512890184
2.85                      0.042737266409460524     -0.09040755532502097     0.11430652997269627
2.85                      0.042713989852510674     -0.08979508010386378     0.11433383663478326
2.85                      0.043869810879722165     -0.0898516412208833      0.11428105011870296
2.85                      0.04261609980733169      -0.08721930280143611     0.1144487528764149
2.85                      0.04332633440481382      -0.08770528332800648     0.11439693245437443
2.8499999999999996        0.04537987017336454      -0.08911042241538593     0.11424783222694683
2.8500000000000005        0.04798314815728068      -0.08773606722959712     0.11419324052105263
2.8500000000000005        0.04686745759272915      -0.08832507659494365     0.11421601284995866
2.8500000000000005        0.047795724880696284     -0.08660850177588408     0.11425054402543171
2.85                      0.04505469322087881      -0.08709547190975382     0.11434916265839556
2.85                      0.04489705861226638      -0.08611869316851546     0.11439874081252924
2.85                      0.045612430598423084     -0.08572745384034386     0.11438464762827347
2.8499999999999996        0.049081017968895545     -0.08711447303316412     0.11417158509957843
2.85                      0.044780918052596784     -0.08539903121940814     0.1144338387275147
2.85                      0.047388642198623196     -0.08291627816280021     0.11442918949988742
2.85                      0.0492604700225554       -0.08410248839459833     0.11429667356604097
2.8499999999999996        0.05047299720651871      -0.084870888208706       0.11420933255207096
2.85                      0.046568511153116256     -0.08239654668688262     0.1144860473123652
2.85                      -0.07724517827319093     -0.06266658227977862     0.11678880187409105
2.85                      -0.07713467726834584     -0.06362483241170136     0.11678712598738804