% Model:              Final Design Simulation.mph
% Version:            COMSOL 6.2.0.339
% Date:               Aug 24 2025, 19:54
% Dimension:          3
% Nodes:              38872
% Expressions:        1
% Description:        Slice
% x                       y                        z                        Electric potential
1                         -0.02524831369632076     -0.09321215550080157     0.5034271908678684
1                         -0.02552685857523437     -0.09326144187320815     0.5035123938609614
1                         -0.025402937169711773    -0.09302517196866127     0.5034567935539953
1                         -0.02450388606272381     -0.09477834654904867     0.5033332966844871
1                         -0.025263603604336125    -0.09492157744703544     0.5035694204047341
1                         -0.024644787270755187    -0.09448190643755028     0.5033520452653795
1                         -0.023759458429126884    -0.09634453759729572     0.5032322564180233
0.9999999999999999        -0.02500352130805521     -0.09659340607993105     0.5036249956211164
1                         -0.023989429240349823    -0.09586070517404839     0.503264829071193
1                         -0.02536169903072289     -0.09428738695975225     0.5035457825910646
1                         -0.025162646883436713    -0.09555470475197408     0.5035886007116126
1                         -0.024966008199646467    -0.09683091749077019     0.5036316603242192
1                         -0.023334071209944456    -0.0972395039105465      0.503171994572269
1                         -0.021403903800500113    -0.09731062006290099     0.5025947735764627
1                         -0.022060744155391308    -0.09620523597910645     0.5027179268479117
1                         -0.021346951445611096    -0.09609540845922186     0.5024952201903428
1                         -0.019367945338592887    -0.09516218095473591     0.5018481199121165
1                         -0.019832421809840486    -0.09439526709901908     0.5019385513990957
1                         -0.01932949618835597     -0.09431485745397833     0.5017845397107806
1                         -0.02005661934821535     -0.0958848089468014      0.5020967092548836
1                         -0.0184203535764733      -0.09416102307237392     0.501508991028137
1                         -0.021324054819184618    -0.09560685541918044     0.5024552120966619
1                         -0.019314038428424773    -0.09397420692781439     0.5017589893747175
1                         -0.02169442927802688     -0.09761598171318996     0.5027030770107179
1                         -0.01760409946428998     -0.09258529821893195     0.5011842008984966
1                         -0.01733390732201214     -0.09302292880898001     0.5011296687723319
1                         -0.017847207169435626    -0.0983921006800257      0.5015828392032822
1                         -0.01950035916512613     -0.09808025187061842     0.5020682167227076
1                         -0.01822203965095404     -0.09702210117708619     0.5016203393105004
1                         -0.01755583020259339     -0.09808266570350262     0.5014769404132559
1                         -0.021146756128930272    -0.09773608856459302     0.5025453954168136
1.0000000000000002        -0.021421155622802272    -0.09767872801360873     0.5026249194492088
1                         -0.021261677712298525    -0.09754795184958205     0.5025685495543434
1                         -0.01875510824861786     -0.096156877210236       0.5017260675967962
1                         -0.019407198796775434    -0.0960272293992164      0.5019130087613957
0.9999999999999999        -0.01902898696458069     -0.09571708555266303     0.5017831847939466
0.9999999999999999        -0.019433590003439565    -0.0966088258579693      0.5019569802056916
1                         -0.017482461903832257    -0.09640990313319983     0.5013611990295477
1                         -0.017393241970748582    -0.09437573078482407     0.5012216619544726
1                         -0.01743313432799938     -0.09528525769463475     0.5012840558405192
1                         -0.01757168183691592     -0.09844407548157558     0.5015019395529519
1                         -0.017381321923879547    -0.09237506800015237     0.501107368208707
0.9999999999999999        0.013124108442868748     -0.09379363527497711     0.4923216400713475
1                         0.014215840466548616     -0.09534090418778476     0.4919386110521091
1                         0.013286160147374972     -0.09544912371998693     0.4922084320055198
1                         0.014808395454862018     -0.09473091071288982     0.49178980455602633
1                         0.015498007897700134     -0.09519165335742685     0.49156671718677136
1                         0.014860757640701579     -0.09526583253846985     0.4917512276554572
1                         0.014974981819618784     -0.09642644396925079     0.49166504123224974
1                         0.0154002611780531       -0.0970311259113778      0.49151014620118527
1                         0.015038746541777469     -0.097075447908802       0.49161648925590884
1                         0.013362857716411068     -0.09622843398669458     0.4921534397106177
1                         0.014681529670978459     -0.09711924299657643     0.49172193012172954
1                         0.013463373569808219     -0.09725350881405363     0.492082901427606
0.9999999999999999        0.012367532072230219     -0.09555605671459773     0.49247597546130206
1                         0.01223056152804615      -0.0973893900171473      0.49244946287683294
1                         0.015068920601680429     -0.09738093911456885     0.4915929941659065
0.9999999999999999        0.013623931666482196     -0.0988821638347705      0.4919672947592063
1                         0.012947271007623044     -0.09842004952637073     0.4921906154038673
1                         0.014178046990796287     -0.09830789440949633     0.491824301773044
0.9999999999999999        0.013186834690618862     -0.09364751640561768     0.49230921137367556
1                         0.016512375974185936     -0.0958693711610247      0.49123288380681984
1                         0.011827279738248746     -0.09681455794879554     0.49259127901568206
1                         0.013417033643131914     -0.09909344759240248     0.4920226647156552
1                         0.0168931191907715       -0.09679478962537355     0.49107331960929806
1                         0.016298252182591066     -0.09772961948910838     0.49120750576418204
1.0000000000000002        0.01750106144608687      -0.09827242852691992     0.49081236585651766
1                         0.017295189472169147     -0.09849063255507519     0.4908641650391883
0.9999999999999999        0.013695139945974403     -0.099057775850425       0.4919385717103148
1                         0.013972439279769364     -0.0990166614426864      0.4918554718360334
1                         0.01563623528311252      -0.09876997499616984     0.49135683904443284
1.0000000000000002        0.017571681836915893     -0.09844407548157558     0.49078204912496076
1                         -0.016356875083059063    -0.09784876538078302     0.5010966961476159
1                         -0.01729518947216891     -0.09849063255507523     0.5014198620226413
1                         -0.016942980062097813    -0.09494579254447905     0.5011182698391474
1                         -0.015570266003359395    -0.0972984062093538      0.5008340028438402
1                         -0.015544190958361508    -0.09671675331762453     0.5007970962575737
1.0000000000000002        -0.01525891481671895     -0.09707793203642767     0.50072747455535
1                         -0.01620086677101075     -0.09661279411899468     0.5009882173885559
1                         -0.015636235283112546    -0.09876997499616982     0.5009273654282976
1.0000000000000002        -0.013695139945974426    -0.09905777585042498     0.500345863608841
1                         -0.013972439279768697    -0.09901666144268649     0.5004289386501648
1                         -0.015505407749186633    -0.09585162093649413     0.5007427154579172
1                         -0.016355275901712627    -0.0945296271523239      0.5009256155181443
1                         -0.013678284696823986    -0.09868959711376876     0.5003245794461452
1                         -0.014885601368179908    -0.0968078048942331      0.5006036311596767
1                         -0.013417033643132575    -0.09909344759240238     0.5002618002035527
1                         -0.01392836437507831     -0.09635708615838406     0.5002953449321601
1                         -0.015683014688618428    -0.09422133465590482     0.5007125816098973
1                         -0.013261352265958848    -0.09716896992988591     0.5001316516464449
1                         -0.01521366081640008     -0.0947926298194194      0.5006040569290475
1                         -0.012173714061538058    -0.09849283766086357     0.49985497964481207
1                         -0.017165969366841213    -0.09241628970895292     0.5010477235398714
1                         -0.011748395825501589    -0.09930747804434108     0.49975738410950843
1                         -0.010811134109838652    -0.09801554425773788     0.49942491959078084
1                         -0.01007587867150701     -0.09948871703126047     0.49924820757120014
1                         -0.005117541659134084    -0.09549290553971965     0.49765080880468937
1                         -0.007259643018971011    -0.09653890724362248     0.4983082819383742
1                         -0.007107838914655929    -0.09616739256745599     0.49825687855659695
1                         -0.004674090162709332    -0.09706293677575796     0.4975435987229745
1                         -0.00716044003347577     -0.09832209944236203     0.4983216903824494
1                         -0.007918858469952744    -0.0981634584702361      0.49854724027278075
1                         -0.007495188492802016    -0.09712072998126203     0.49839320837634377
1                         -0.006942451724446968    -0.09821170357904752     0.49825346913379215
1.0000000000000002        -0.008193315372989706    -0.09884517870890583     0.49865301678784135
1                         -0.006855001525559194    -0.0983820221833622      0.49823007608960074
1                         -0.0071179631573979095   -0.09847454352478015     0.4983127754594881
1                         -0.007681108654098537    -0.09645348627106252     0.4984331098420349
1                         -0.01016575996504384     -0.09769346641794859     0.49921640965438246
1                         -0.009706368873678756    -0.09936453877505426     0.49913081617487215
1                         -0.007802097215193706    -0.09651386633851804     0.4984712505103819
1                         -0.0045288903021015806   -0.09757701400508398     0.4975090404027524
1                         -0.005196457343152858    -0.09521350612417659     0.4976685295521193
1                         -0.005794027486191926    -0.09967673902191845     0.4979321044872778
1                         -0.006444568121896896    -0.09909535947268966     0.4981227997673179
1                         -0.005097241886159388    -0.09852029672130716     0.4976965086934417
1                         -0.009517887650896052    -0.09954364930696155     0.49907788180563645
0.9999999999999999        -0.009622497608235152    -0.09944556395661516     0.4991077766912873
1                         -0.007842458680066201    -0.09969200397436256     0.49856508771830216
1                         -0.006164117892399689    -0.09980747432224532     0.49804872023396973
0.9999999999999999        -0.009797125812604796    -0.0995189235290699      0.49916334247150146
1.0000000000000002        -0.005884394427885751    -0.0998267193802191      0.49796265432265885
1                         0.035764630663981584     -0.09144607026606949     0.4860060612069087
0.9999999999999999        0.036403892863981935     -0.09299869953626441     0.48565048829674423
0.9999999999999999        0.03611149173501364      -0.09297151128689633     0.4857369219090597
1                         0.03605019511675668      -0.09133435873551965     0.4859370757723835
1                         0.0353602614555513       -0.08966538258083943     0.48631439369966734
1                         0.03602021957016846      -0.09119330744072689     0.4859610407962485
1                         0.035701533371431005     -0.09116639855613227     0.4860531376392577
1                         0.03566909213426707      -0.0895410613565599      0.48624175927668845
1                         0.03633351217404843      -0.09121706437165641     0.4858706832832097
1                         0.03786335952803325      -0.09058370161577861     0.48551214855332203
1                         0.03802827494537508      -0.09135293370394044     0.48537532576117975
1                         0.03638963734401232      -0.09149787761347469     0.48582188843560625
1                         0.0364312980992463       -0.09312765611447935     0.4856282826767449
1                         0.03825165391923549      -0.09239486342333056     0.48518999660301626
0.9999999999999999        0.036691348930597306     -0.09302297144434585     0.48556567480149726
1                         0.03973990314924312      -0.09147537048585887     0.48487600706463907
1                         0.03979963077865055      -0.09173613066758463     0.484828542053909
1                         0.036036436572288257     -0.08971561077618355     0.4861196193106517
0.9999999999999999        0.03616919257969234      -0.09322723666215942     0.4856932611602207
1                         0.035291770332169306     -0.08936177103730997     0.48636476933393763
1                         0.04005762692179944      -0.09162634187499731     0.48476829524050036
1                         0.033736790947319184     -0.08824167122478452     0.48691234104544795
1                         0.033628587904636235     -0.08922853005171502     0.48683895902311725
1                         0.03484661337247917      -0.0923539369171513      0.4861665732107456
1                         0.03446079401040153      -0.0905686994725783      0.48646611663315187
1                         0.03438145467135006      -0.09280334441586618     0.4862530662196297
1                         0.03400502128799317      -0.0910159372337907      0.4865480950216985
1                         0.034222647888054916     -0.09204928699807617     0.4863785348873265
1                         0.033848736314277914     -0.09027385404770866     0.4866698536193396
1                         0.034596559461831905     -0.09382471994844366     0.4860831067869116
1                         0.04204594591240418      -0.08606208757018383     0.4849253937515043
1                         0.04279820879978177      -0.08682448362525531     0.4846250213455508
1                         0.0414440705997764       -0.08705778070532949     0.4849599236201655
1                         0.04331420928947359      -0.08734743476953866     0.4844159636582568
1                         0.044142319053004093     -0.08818669937699894     0.48407838744262566
1                         0.04265811244111268      -0.08845718961159113     0.4844485722938485
1                         0.04237851801500375      -0.08813621301587182     0.4845667930775397
1                         0.04368727627452044      -0.08964541421091397     0.4840064205478985
1                         0.04145409854655945      -0.08546226787351177     0.48516023598864627
1                         0.041071035300298556     -0.08662971014240832     0.4851143051246086
1                         0.04387333809142227      -0.089859102778989       0.4839260794221269
1                         0.044582472666542555     -0.08863278196889318     0.48389638169119153
1                         0.04241810731135731      -0.08878024752294664     0.4844706595049394
1                         0.04227884988764821      -0.0886410487080399      0.4845275777221827
1                         0.041121338896189116     -0.08748402487432871     0.4849911406389795
1                         0.04093545036411313      -0.0872982145765324      0.4850655907036339
1                         0.041896052050686125     -0.0888174291713124      0.4846105624827392
1                         0.04128900565731172      -0.09025979610924703     0.4845915816829023
1                         0.04049653864295629      -0.08946227822576487     0.4849139251026755
1                         0.04219255595548173      -0.08907814187042845     0.484494836464673
1                         0.0436222494111833       -0.08998388283954738     0.48397852667624575
1                         0.04184816832732706      -0.09082252265941843     0.48436415182268194
0.9999999999999999        0.04336880925642078      -0.09010368852806536     0.484033620761474
1                         0.040818059202099424     -0.08787701421711944     0.48502503084425674
1                         0.04031341855108663      -0.09151151055851922     0.4847105638705515
0.9999999999999999        0.040125187480347844     -0.09129323309291446     0.48479071712262933
1                         0.05396267181086633      -0.0823325322393187      0.482376709073672
1                         0.05235239302887123      -0.08237768714712822     0.482779682904783
1                         0.053412065481602426     -0.08134514715651683     0.48267909913815754
1                         0.05327867205133992      -0.08308865726433592     0.48242692110302515
1                         0.0528494474227062       -0.080336221815227       0.48298654654246964
1                         0.05099797660880222      -0.08133232984460129     0.4832894824858691
1                         0.05256397931617659      -0.07982430080193274     0.4831398762094259
1                         0.051549770518826143     -0.0817566173864728      0.48308366071054826
1                         0.052556538301036695     -0.08153923666571936     0.48286312497766243
1                         0.053809270559408616     -0.08297096831683858     0.4823089901718696
1                         0.052115009327895825     -0.08335265206426871     0.48268203563308176
1                         0.051114182038586545     -0.08356875011721002     0.48290538049919984
1                         0.05065096648222306      -0.0827389055760972      0.48315610383717045
1                         0.050855456036379365     -0.08191002473894082     0.4832336521023691
1                         0.05130118189051372      -0.0801033132878769      0.48340747513679594
1                         0.05426015164702811      -0.08286599351110085     0.4822105557217083
1                         0.051736223034546086     -0.07833991139113518     0.4835822129621648
1                         0.050409730182245        -0.08371673619000472     0.4830648728307028
1                         0.045379870173368184     -0.0891104224153842      0.48361134997390587
0.9999999999999998        0.049215194907425666     -0.08489786503051801     0.4831945171024185
1                         0.05031115535892352      -0.08604176888805622     0.4827279903440012
1                         0.04806791806337131      -0.08554002014054875     0.48340149231492097
1                         0.04788554543049865      -0.08351004928976591     0.48374904231227434
1                         0.04846481098247998      -0.08411465513895036     0.4835074687852189
1                         0.046995115789854464     -0.08399702823377148     0.48390955874936714
1                         0.047502777227508855     -0.08585634141689703     0.48350343374848814
1                         0.047874980057668125     -0.08624684226244851     0.48334568830118774
1                         0.046931537269893464     -0.0861615105913784      0.48361203509414274
1                         0.046959162728011664     -0.08528600206290324     0.48372917091420586
1                         0.04736596017735201      -0.0880681220372044      0.4832168040626518
1                         0.04688307195835835      -0.08795278269409516     0.4833635913006692
1                         0.05030153334306505      -0.08642501966047555     0.4826724343740876
1                         0.04884166709484722      -0.0872610529959901      0.4829359706400116
1                         0.04712000902451904      -0.0882026335440281      0.4832636039364448
1                         0.05054484438435269      -0.08628568077127008     0.48262850823979536
1                         0.04703950900196989      -0.08262700252207532     0.48409457300256775
1                         0.046871417760140775     -0.08833231766847005     0.4833132866696895
1                         0.04631478652370401      -0.08385257700456845     0.48410635043881367
1                         0.04598127644963465      -0.08594974070223485     0.48389507743996496
1                         0.04620170410489728      -0.08456365700485795     0.4840334940153756
1                         0.045824355788734665     -0.08693648245020624     0.4837963563182095
1                         0.04657905242105989      -0.08219083155950968     0.4842763019293896
1                         0.04564776637556537      -0.08804690439990084     0.48368814527905585
1                         0.05214232701352593      -0.08381566307657257     0.48260037856373894
1                         0.05359080291611777      -0.08416352012046403     0.4821670386797853
1                         0.050991932972642505     -0.08452022751414393     0.4827886653749099
1                         0.05093907603288601      -0.08495723344279854     0.48273203206228604
1                         0.05046883995989972      -0.08484059837944986     0.48287426860133936
1                         0.052194487822415675     -0.08469974342121254     0.48244404749718645
1                         0.05365420871206657      -0.08438456132589914     0.4821148376594426
1                         0.050479789398151946     -0.08504878152842434     0.48283886271461224
1                         0.05222855003435437      -0.08527706828850191     0.4823419624909125
1                         0.05078537376285483      -0.08614159327377342     0.48258757792532064
1                         0.05389181849160513      -0.0842358101655155      0.48207697999217236
1                         0.05412650867218012      -0.0840823953422449      0.48204220409205745
1                         0.055534649756104865     -0.08316190640231091     0.48183352697624515
1                         -0.08966775785737119     -0.0360959802691032      0.506043952496295
1                         -0.09000670209344297     -0.036520883977371375    0.5062004824605868
1                         -0.0901861409946177      -0.03613537773633146     0.5061128691913941
1                         -0.08864651668506113     -0.037469542969874266    0.5063115081945482
1                         -0.08904403835461173     -0.038589069175300715    0.5066678312453154
1                         -0.08953375008118472     -0.03753697330496046     0.5064321002175248
0.9999999999999999        -0.09091680043191495     -0.037647550537675045    0.506623585516124
1                         -0.09097741905372214     -0.037723325083570715    0.506652015804133
1                         -0.09100980547520647     -0.03765484284268868     0.5066364996733925
1                         -0.09052688172742636     -0.03616262053865403     0.5061590442368278
1                         -0.09104333955471465     -0.03758393383806936     0.5066201570539077
1                         -0.09165430998182904     -0.03625007256436456     0.5063091156736788
1                         -0.09037193856356993     -0.035736210543865284    0.5060205977901491
0.9999999999999999        -0.09224437078138592     -0.03496186086911522     0.5060037185488181
1                         -0.09107093358326347     -0.03765987374581906     0.5066451390889127
1                         -0.0929600236076054      -0.03635646359662234     0.5064862535040404
0.9999999999999999        -0.09260707254785906     -0.0354066203411989      0.5061726882929226
1                         -0.09155383114376053     -0.03732728759813167     0.506604501827026
1                         -0.08839050179205932     -0.03674853728980912     0.506081844020713
1                         -0.08917609257845953     -0.03896096881111667     0.5067878959897707
1                         -0.09214034722831724     -0.03483272100797772     0.5059555718602049
1                         -0.09322723666215949     -0.03616919257969257     0.5064608879586009
1                         -0.0948478483720649      -0.0064221387597137      0.4978446989239356
1                         -0.09567009452777758     -0.007811143559463694    0.49827339545184796
1                         -0.09639420386513677     -0.005601373098053348    0.4976267330085594
1                         -0.09613543700533367     -0.008587557849289263    0.49851710363709906
0.9999999999999999        -0.0979946334027429      -0.007683379003030566    0.49828820202458984
0.9999999999999999        -0.09797951490851929     -0.007616708762580262    0.4982676345012327
1                         -0.09713129624783798     -0.010272721896548669    0.49905184634294164
1                         -0.09435702444214147     -0.00792356193637076     0.4982780983741557
1                         -0.0952656170882163      -0.009045490711385665    0.49862984188037973
0.9999999999999999        -0.09801794802949099     -0.0076134531777117      0.4982676096232729
0.9999999999999999        -0.09795354807740767     -0.007505821889667598    0.4982337660803638
1                         -0.09801029548117311     -0.0076005037580098266   0.49826349868772646
0.9999999999999999        -0.09856613079766476     -0.01015320069505667     0.4990577872183305
0.9999999999999999        -0.09930629953540639     -0.009766668010167597    0.49896247145719685
1                         -0.09365418932372868     -0.007055702233956282    0.4980061349620509
1                         -0.09670967243648523     -0.005433930506840711    0.4975819308249589
1                         -0.09631545582553003     -0.010341829938437427    0.4990493062958146
1                         -0.0994887170312607      -0.010075878671507488    0.499063320738797
1                         -0.09690222423323805     -0.010617672952135612    0.4991493521035264
1                         -0.09744894294202383     -0.010874688384963239    0.49924491294786316
1                         -0.0985859019009854      -0.011409178963479823    0.4994461523646853
1                         -0.09930747804434137     -0.011748395825501346    0.49957542820314765
1                         -0.026358152281073223    -0.09435585396561127     0.5038430091567233
1                         -0.025888312905396317    -0.09536543542900316     0.503788851918247
1                         -0.025777331386067866    -0.09560391030040286     0.5037750961160332
0.9999999999999999        -0.025237997697836346    -0.09676281975416429     0.5037082673291026
1                         -0.02627177091866175     -0.09563788358952918     0.5039256311081897
1                         -0.027131838540037458    -0.09624896442045605     0.5042324095555267
1                         -0.027378831523268865    -0.09570696906862329     0.5042585651479858
1                         -0.026610124657333076    -0.0951619609912702      0.5039844826569093
1                         -0.026538628112956292    -0.09396805110384207     0.5038638188206938
1                         -0.027777110924752043    -0.09483299450663198     0.5043007561829969
1                         -0.027159670790180425    -0.09440178079423409     0.504082925535076
1                         -0.028746485851411516    -0.0957766559824035      0.5046713086405561
0.9999999999999999        -0.028783011392524364    -0.09553550484038574     0.5046611341315933
1                         -0.025508546389499447    -0.09668941184937051     0.5037831471066845
0.9999999999999999        -0.029015593736547787    -0.09569793790942187     0.504744451855634
1                         -0.03148738057329105     -0.09277652818342333     0.5051874851063319
1                         -0.031210376536657865    -0.09308624388467357     0.505139354332562
1                         -0.03137045280536144     -0.09323188303909277     0.5051994486641339
0.9999999999999999        -0.03282244253073122     -0.09419111423074468     0.5057182833698872
0.9999999999999999        -0.03264595192236365     -0.09439234620060402     0.505688171272978
0.9999999999999999        -0.03274849302131236     -0.09448563922314294     0.505727459485604
0.9999999999999999        -0.031270878992284264    -0.09361965593585676     0.5052084794607001
1                         -0.03006419456354057     -0.09435283309528447     0.5049294085665345
1                         -0.03088817111288445     -0.09511004521013564     0.5052431715302301
1                         -0.03095420953809644     -0.09336706246065857     0.5050916573223262
1                         -0.03055640571790743     -0.0917888259149952      0.5048239809930908
1                         -0.029992412589410513    -0.09197812685504263     0.5046820984265343
0.9999999999999999        -0.03178396293914741     -0.09308856066535283     0.5053040236211489
1                         -0.029504003162979152    -0.09383803238223223     0.5047160838094364
1                         -0.029855329726298604    -0.09250015030706266     0.5046916416068743
1                         -0.03248273274875825     -0.09457484007840128     0.5056582793746779
0.9999999999999999        -0.029091446592191855    -0.09540908364529285     0.5047400515631211
1                         -0.029283104790231204    -0.09561395323812007     0.5048157016423362