% Model:              Final Design Simulation.mph
% Version:            COMSOL 6.2.0.339
% Date:               Aug 24 2025, 20:03
% Dimension:          3
% Nodes:              19389
% Expressions:        1
% Description:        Slice
% x                       y                        z                        Electric potential
2.6000000000000005        -0.02886753075470063     -0.09271532344734479     0.22638827318558696
2.6000000000000005        -0.029083903284884263    -0.09291471975382701     0.22641909521744188
2.6000000000000005        -0.028869855987491352    -0.09234775051510044     0.22637782736014556
2.6000000000000005        -0.02917674643447829     -0.0925777150987849      0.2264187503050636
2.6000000000000005        -0.028861348796681563    -0.09369256772375761     0.22641451332873025
2.6000000000000005        -0.029754731215254387    -0.09053468188349421     0.2264281213002764
2.6000000000000005        -0.02888631655094326     -0.08974566370532039     0.2263085398815503
2.6                       -0.029816813812019408    -0.09544207175746322     0.2265711323601567
2.6000000000000005        -0.028684800745418647    -0.09522519383276108     0.2264368371167486
2.6                       -0.03380321790144593     -0.0941040589282139      0.22698599966848404
2.6000000000000005        -0.033991330930989376    -0.09341346519031085     0.22698646998854627
2.6000000000000005        -0.030697911664376118    -0.09307613631751456     0.22660564545593115
2.6                       -0.031819864000587776    -0.09480240637760222     0.22678355582528092
2.6000000000000005        -0.031576177265321435    -0.09177236040755332     0.22666245462747575
2.6000000000000005        -0.03459655946183214     -0.09382471994844346     0.22706654396718925
2.5999999999999996        -0.03679616725192194     -0.08957672062628344     0.2271556160313712
2.5999999999999996        -0.036436018216914744    -0.08997264124386133     0.22713107025799256
2.6000000000000005        -0.03717623995396576     -0.08976868274518199     0.22720279025223755
2.6                       -0.03692833413542054     -0.09031857237368196     0.2271972744384094
2.6000000000000005        -0.039969605662620096    -0.09117951913887275     0.22756164666436932
2.6000000000000005        -0.03928209747594872     -0.09195188016102475     0.22751699385547633
2.6000000000000005        -0.0336328474422547      -0.08803139988930057     0.22676336317187143
2.6                       -0.03365245388281016     -0.08798893524654067     0.22676396398376464
2.6                       -0.03538133500460183     -0.09352215021346294     0.22714283843091254
2.6                       -0.037343273861419876    -0.09276572587605258     0.22733558781891391
2.6000000000000005        -0.03610413803945217     -0.092053604004339       0.22717151114911283
2.6000000000000005        -0.03411143519934365     -0.09090841293560392     0.22691291657202786
2.6000000000000005        -0.03447465828796949     -0.09309191543690361     0.22702831805092488
2.6000000000000005        -0.040057626921800676    -0.09162634187499664     0.22758918715805784
2.6000000000000005        -0.02901559373654861     -0.0956979379094215      0.22648701950510536
2.6000000000000005        -0.028207189475973803    -0.09593010950230328     0.22639921984252717
2.6000000000000005        -0.027573447435089996    -0.09369622667712929     0.22626830068070936
2.6                       -0.026412675419611495    -0.09209927072230487     0.22609835095763325
2.6000000000000005        -0.026737253236854892    -0.09512249793670344     0.22620735139565565
2.6                       -0.024998488377552173    -0.09413728628901626     0.22598553462771406
2.6                       -0.02466916186638799     -0.09395432047696432     0.2259434225534969
2.6                       -0.026067407434093557    -0.09162426119577369     0.22604737867530475
2.6                       -0.024148959099893032    -0.09703122807451772     0.22594928731570885
2.6000000000000005        -0.026186178824648805    -0.09651053848447559     0.22617850597107728
2.6                       -0.0241106592840898      -0.09532859676458866     0.22590848075042025
2.6                       -0.024544775051037297    -0.09426039220563236     0.2259365143667627
2.6000000000000005        -0.02333407120994471     -0.09723950391054635     0.22585850144075315
2.6000000000000005        -0.023027060076955104    -0.09660579023897488     0.22581045748679363
2.6000000000000005        -0.021102347682422334    -0.09683142285708805     0.22558533655690785
2.6                       -0.02251340586500779     -0.09742370349978909     0.2257646464180113
2.6                       -0.02223476747930482     -0.09497038814092501     0.2256852441706177
2.6                       -0.01965151960407465     -0.09619416046716693     0.22540500061824775
2.6000000000000005        -0.020110368740892802    -0.0954144730786418      0.22544503897256352
2.6                       -0.02046174250278133     -0.09788420247286996     0.2255286691695652
2.6000000000000005        -0.021405093623547658    -0.09325782592789111     0.22555786267373187
2.6                       -0.018397413455768688    -0.09828411176479586     0.22528579165182852
2.6000000000000005        -0.019590070644949553    -0.0950566559760719      0.2253790867357034
2.6000000000000005        -0.01923298299561011     -0.0956296792994103      0.22534706904543625
2.6000000000000005        -0.021025454700631517    -0.09275327599814383     0.22550564170062834
2.6000000000000005        -0.017828930403530372    -0.09788278125895385     0.2252123596730404
2.6000000000000005        -0.014705860178208055    -0.09646898840631807     0.2248231709844448
2.6000000000000005        -0.015331067914158154    -0.0967887772205759      0.22490129967376893
2.6000000000000005        -0.015322279669575598    -0.09594687914127564     0.22489166880349679
2.6000000000000005        -0.015639711572434618    -0.09633533523064197     0.22493368006106246
2.6000000000000005        -0.01647143395428511     -0.09735315234663505     0.22504540580486143
2.6                       -0.01389779840799298     -0.09420367559032136     0.224709007417717
2.6000000000000005        -0.012939429510296786    -0.09558439535175411     0.2246072122264035
2.6000000000000005        -0.017571681836916236    -0.09844407548157541     0.22518957456843128
2.6                       -0.016741599515609204    -0.09857966470279932     0.22509093992650708
2.6000000000000005        -0.012554396467474443    -0.09678797999936421     0.224571011427568
2.6000000000000005        -0.01369095246388585     -0.09776540667174125     0.22471037478809502
2.6000000000000005        -0.011897275036106323    -0.09884209270775113     0.2245045035557872
2.6                       -0.01258210950752354     -0.09919638081905038     0.22458974681608695
2.6000000000000005        -0.014666393712460549    -0.09891863775583967     0.22484294186770964
2.6000000000000005        -0.011748395825501665    -0.09930747804434097     0.22448942595434385
2.6000000000000005        -0.0026746911066620627   -0.09760479184621178     0.22338017551920467
2.6000000000000005        -0.003802278616758297    -0.09822833258233142     0.22351490935347648
2.6                       -0.003956398084491658    -0.09525435913129379     0.22354534817938904
2.6                       -0.004642071644265639    -0.09724787133853266     0.22362115179805653
2.6000000000000005        -0.005244276520336478    -0.09899870853298728     0.2236915546899803
2.6000000000000005        -0.0036928410317563      -0.09448809916043385     0.22351713700214795
2.6                       -0.001528402582897209    -0.0969829675267584      0.22324499544969503
2.6000000000000005        -0.008820216886290932    -0.0996102593816456      0.22413077316587998
2.6000000000000005        -0.009601827642150063    -0.09822336587159018     0.22422646782043212
2.6000000000000005        -0.007371610874263859    -0.09747756326523963     0.22395270781421361
2.6                       -0.010911773271407714    -0.09939398699786006     0.22438737456515512
2.6                       -0.011427151253448512    -0.09884108815604092     0.22444898601282595
2.6000000000000005        -0.008002058761964175    -0.09680762665675166     0.22402646513944946
2.6000000000000005        -0.00991014856351791     -0.09663867050712713     0.2242544319163085
2.6                       -0.006723200844607478    -0.09976487366633836     0.22387070148941068
2.6000000000000005        -0.006376573523651398    -0.09850895333030271     0.22382862297124206
2.6000000000000005        -0.009178439249167426    -0.09557635893807262     0.22416627952413742
2.6000000000000005        -0.008064083136001599    -0.09539864385279609     0.22402887631283214
2.6000000000000005        -0.007319335345570651    -0.09677131521062227     0.22394441616447897
2.6000000000000005        -0.007599291077555525    -0.0967862049847775      0.22397847854570682
2.6000000000000005        -0.009033419395458918    -0.09361202543437888     0.22414123381086734
2.6000000000000005        0.009463170717932408     -0.09434015239654205     0.22196173801735963
2.6000000000000005        0.008695794574454059     -0.09710815448777597     0.22200180628957372
2.6000000000000005        0.0076976652941245305    -0.09692684085074135     0.22212482333547623
2.6                       0.00995156597526759      -0.09733626970737032     0.22184104857294676
2.6000000000000005        0.008289327280888527     -0.09860366801181403     0.2220199856098171
2.6000000000000005        0.009521172259135286     -0.09425517281226434     0.22195629666430367
2.6                       0.010478706353326706     -0.0969418644900505      0.22178397209687534
2.6                       0.006723200844607501     -0.09976487366633836     0.2221956321439983
2.6000000000000005        0.00653836743469513      -0.09862535865053165     0.22223958220640033
2.6                       0.010656874123247293     -0.09727381659385101     0.22175520665451526
2.6000000000000005        0.011155803389506011     -0.09820339336105219     0.22167188161495346
2.6                       0.010367398690806225     -0.09764206319575451     0.22178388124101325
2.6                       0.008820216886290966     -0.09961025938164561     0.2219347296485661
2.6                       0.010911773271407226     -0.09939398699786012     0.2216759072937599
2.6000000000000005        0.011748395825501716     -0.09930747804434097     0.22157331208002917
2.6000000000000005        0.017571681836916427     -0.09844407548157538     0.2208661387163865
2.6                       0.016741599515609377     -0.09857966470279929     0.22096569690690962
2.6000000000000005        0.017149368727647947     -0.0981394738969516      0.22092701006065085
2.6                       0.015233265192855382     -0.09778683006077027     0.22117732968325624
2.6                       0.013182817487617939     -0.09718423086750143     0.22144574120488253
2.6                       0.013512513391546355     -0.096850233297122       0.2214140984939195
2.6                       0.014666393712460674     -0.09891863775583967     0.2212168349103094
2.6000000000000005        0.012966385351915105     -0.09693120619594434     0.22147939541447959
2.6000000000000005        0.012483681678386666     -0.09787295087079464     0.2215166852820286
2.6                       0.012582109507524142     -0.09919638081905033     0.22147186988990764
2.6000000000000005        0.013116022996692423     -0.0966392663105565      0.22146841323675814
2.6                       0.01467717443280785      -0.09563336554930771     0.22130218539377705
2.6000000000000005        0.015630454107357312     -0.0965997225039427      0.22116111183501347
2.6000000000000005        0.01377629263060689      -0.09472012527145074     0.22143684938717573
2.6000000000000005        0.01822178850763711      -0.09635413163721729     0.2208504220918443
2.6000000000000005        0.018815921069662525     -0.09627797719788798     0.22077959463011265
2.6000000000000005        0.018841090417939552     -0.09684698538939335     0.2207571574966604
2.6                       0.018746701970145087     -0.09458327831204358     0.220842685748703
2.6000000000000005        0.01961311468057247      -0.09617579489656997     0.22068522340262792
2.6000000000000005        0.017822486737154333     -0.09770122009752984     0.220858158904605
2.6000000000000005        0.020464412678443115     -0.09545057924010035     0.2206043647651284
2.6000000000000005        0.018860588077518496     -0.09419907099724219     0.22084113109135398
2.6                       0.018397413455768865     -0.09828411176479582     0.22076844829120912
2.6000000000000005        0.020842615975719625     -0.0967164746594506      0.22051586920709132
2.6000000000000005        0.020461742502781474     -0.09788420247286993     0.22052287772619725
2.6                       0.021121834913855986     -0.09586041157482567     0.22051138557244288
2.6000000000000005        0.022513405865008464     -0.09742370349978893     0.22028295479326934
2.6000000000000005        0.02297536389349473      -0.09701588832673282     0.22023988520195686
2.6000000000000005        0.023334071209944865     -0.09723950391054631     0.2201878455162153
2.6000000000000005        -0.04838041784500522     -0.08460241772628212     0.22812903141918484
2.6000000000000005        -0.04677865362396248     -0.08322359760457551     0.22789996804475243
2.6000000000000005        -0.047683428927101       -0.08500417760546207     0.22807949395827604
2.6                       -0.04808047488159775     -0.08578458133800448     0.22816120318419397
2.6000000000000005        -0.046448642271097546    -0.0857159360351666      0.2279904315132188
2.6000000000000005        -0.0498081716487752      -0.08583144734725807     0.2283386327985491
2.5999999999999996        -0.045577433337963595    -0.08568598109932325     0.2279028374550289
2.6000000000000005        -0.046326010678212834    -0.08283395648676989     0.2278359841797366
2.6                       -0.05379908323050278     -0.08125520785770453     0.22846823224208665
2.6000000000000005        -0.05179955530635433     -0.08081974683212192     0.22825435608932065
2.6                       -0.053732431527586035    -0.08173090797403879     0.2284893078835965
2.6000000000000005        -0.05164357491933433     -0.07999960252025233     0.22819243875680467
2.6                       -0.05129669843517517     -0.0805769954121516      0.22819168543670265
2.6000000000000005        -0.05239626239910984     -0.08398999361558973     0.22849196866114213
2.6000000000000005        -0.05091911274068997     -0.08311528872301348     0.22829871867587614
2.6000000000000005        -0.051403400469582194    -0.07985969848023267     0.22816227943585146
2.6                       -0.0539565863779271      -0.08134695503007534     0.22848845778323218
2.6000000000000005        -0.05126424282087013     -0.08584992053147325     0.228483441997422
2.6000000000000005        -0.05058254671900673     -0.08537783016454467     0.22839048418478786
2.6                       -0.05394158027367869     -0.0811303589562843      0.2284741186880198
2.6                       -0.054439800649657206    -0.08125853428586852     0.22852861003301794
2.6                       -0.05454848862526422     -0.08066632431586578     0.22850126865560072
2.6000000000000005        -0.053753201534818454    -0.07841132578502469     0.2282947496416902
2.6000000000000005        -0.05502741586692719     -0.07816284505035472     0.22839508409393722
2.6000000000000005        -0.05713639771730983     -0.07868764094163644     0.22861997050976407
2.6000000000000005        -0.05729113250993696     -0.08072125064219698     0.22876370736044033
2.6000000000000005        -0.05371333172217731     -0.07783585031598168     0.2282567485229466
2.6000000000000005        -0.059337119197086306    -0.07923526518517032     0.22885853495165773
2.6                       -0.0596538339069361      -0.08024743950719603     0.22895226446580455
2.6000000000000005        -0.054828389514929285    -0.08361865312510477     0.228707521272979
2.6000000000000005        -0.053062738912074976    -0.08476051993203501     0.22860271062860113
2.6000000000000005        -0.05553464975610546     -0.08316190640231039     0.22874931675803173
2.6000000000000005        -0.056227159763283366    -0.08268456900904551     0.2287852383737003
2.6000000000000005        -0.0569221506308093      -0.0814226948873469      0.22877201666350694
2.6000000000000005        -0.05795843478114485     -0.08149122552594065     0.2288763035662235
2.6000000000000005        -0.05894444196233371     -0.07432632730985225     0.22849752895782882
2.6                       -0.05853466461656835     -0.074328466585587       0.2284617730105131
2.5999999999999996        -0.05924651955121728     -0.0764045117642927      0.22866125734369405
2.6                       -0.05967741092392916     -0.07705307646249565     0.22874215859044456
2.6000000000000005        -0.0633542867940603      -0.0758086792487162      0.22898087594426783
2.6                       -0.05955413470253995     -0.0768678842268161      0.2287184730252381
2.6000000000000005        -0.06356480919253375     -0.07718529196463965     0.2290946054814595
2.6                       -0.0625353000515339      -0.0780341992171674      0.2290645580136751
2.6                       -0.06160824539964046     -0.07522175432389032     0.22878646121182644
2.6                       -0.06108141753494141     -0.0791663448675129      0.2290102011863926
2.6                       -0.06468983980026506     -0.07625762012163759     0.22912749849540667
2.6000000000000005        -0.06385908066329177     -0.07177828774850736     0.22872946988144455
2.6000000000000005        -0.06228809161154612     -0.07168927197315361     0.22859570569380755
2.6                       -0.06325571249165077     -0.07341305630872204     0.22879848234741545
2.6                       -0.06657566885404466     -0.07415366318669818     0.2291322073882385
2.6000000000000005        -0.06720608777127735     -0.07236385931612184     0.22904731365719083
2.6000000000000005        -0.06590526728874008     -0.07283565038675316     0.2289760754057064
2.6                       -0.06386585490752983     -0.07354563619768487     0.22885864444967252
2.6000000000000005        -0.06551478456451126     -0.07206795941566017     0.22888762642002047
2.6000000000000005        -0.0669862896513409      -0.07424306584705773     0.2291732106998898
2.6000000000000005        -0.06873614816348347     -0.07263154917559997     0.22919507985151952
2.6                       -0.0634916303829015      -0.0738809948886795      0.22885212399659743
2.6                       -0.06385041876013725     -0.0739463280680117      0.22888803356588425
2.6                       -0.06382073242017702     -0.07453376242219456     0.22892816384443487
2.6000000000000005        -0.0663219096435575      -0.07483455077548443     0.22916133967550723
2.6000000000000005        -0.06673762554700254     -0.07447207084772131     0.2291701561618139
2.6000000000000005        -0.07023381125425901     -0.06933872963772908     0.22905384510914628
2.6000000000000005        -0.06813075194145818     -0.07015094255271068     0.2289514667446002
2.6000000000000005        -0.0699916012825686      -0.07141206049225947     0.22919924929586682
2.6000000000000005        -0.06853450969438377     -0.06913444977249723     0.22890279355216628
2.6000000000000005        -0.070603634678142       -0.07081755975911211     0.22920146086329785
2.6                       -0.06801023803897611     -0.06965713771255638     0.22890371617678873
2.6000000000000005        -0.07187087764229139     -0.06952081671774187     0.22919405738606102
2.6000000000000005        -0.06786404298070238     -0.06905810452306221     0.22884632549674241
2.6000000000000005        -0.06937860252342082     -0.06661738493602479     0.22876834978814786
2.6000000000000005        -0.07057694613805669     -0.06738804039067839     0.22892031750142988
2.6000000000000005        -0.0722216845394764      -0.06844577258456        0.22913284522730468
2.6                       -0.06842386112708111     -0.06600339020539273     0.22864819771279338
2.6                       -0.07242326560098476     -0.06895556975103001     0.22919100843285425
2.6                       -0.07301275104386196     -0.0653241810751868      0.22892987677743665
2.6                       -0.0730450735896419      -0.06538503276173925     0.22893738917502315
2.6                       -0.07307903151291278     -0.06535056013097132     0.22893683460410327
2.6                       -0.0729807935427537      -0.06545028711502951     0.22893812116593693
2.6                       -0.07307055753999557     -0.06543234610775446     0.22894337250296065
2.6                       -0.07313749222610744     -0.06483194557639174     0.22889668283090317
2.6000000000000005        -0.0727125882856717      -0.06864331104972803     0.22918642559817534
2.6000000000000005        -0.059453966763914116    -0.07704386071955882     0.22872157186262368
2.6                       -0.05942932227814802     -0.07696790681291052     0.2287144111884576
2.6                       -0.06033199355727973     -0.07974992509967829     0.22898261693764663
2.6000000000000005        -0.09195188016102421     -0.039282097475950566    0.2274361158503702
2.6000000000000005        -0.09114395600506907     -0.039691098187470776    0.22745112853606342
2.6000000000000005        -0.09162634187499734     -0.040057626921799594    0.22750990075758892
2.6000000000000005        -0.09097376338085052     -0.038451870436176074    0.22730649138777526
2.6000000000000005        -0.08942764112222171     -0.03838699962045938     0.22724188669160952
2.6000000000000005        -0.09016858967716243     -0.038949990688348       0.22733154073453185
2.6                       -0.09080359523201821     -0.03737255129591248     0.22718099103282097
2.6000000000000005        -0.09068831297716731     -0.036587245424026194    0.22709125403226668
2.6000000000000005        -0.08871083747932755     -0.037842354454896275    0.2271566691185341
2.6000000000000005        -0.09209312687490198     -0.036838664523010815    0.2271724800287508
2.6                       -0.09126777871388589     -0.03621945695836386     0.2270721025412053
2.6000000000000005        -0.09276572587605314     -0.03734327386141906     0.227250730057795
2.6                       -0.0934326690770215      -0.034845395207114056    0.22699093296239964
2.6                       -0.09352215021346397     -0.03538133500459979     0.22705409757899883
2.6                       -0.09382471994844394     -0.03459655946183156     0.22697625836656735
2.6000000000000005        -0.09236754096427402     -0.03386299029997099     0.22684747953828352
2.6000000000000005        -0.09410405892821402     -0.033803217901446345    0.22689421706826518
2.6000000000000005        -0.09372106691605493     -0.03222420664297712     0.22670072885641196
2.6                       -0.091076528767298       -0.033213072379402735    0.2267328477329176
2.6                       -0.09480240637760268     -0.03181986400058712     0.2266880168871436
2.6000000000000005        -0.0934388697525036      -0.031136805038948376    0.2265701136983151
2.6                       -0.0913136157553932      -0.032506708046989956    0.22666055925493497
2.6000000000000005        -0.09060042584790966     -0.032973393916201424    0.22669142847519602
2.6000000000000005        -0.09544207175746403     -0.029816813812017694    0.22647192252423365
2.6000000000000005        -0.0924662444193512      -0.029745195461693987    0.22638526651281438
2.6                       -0.08972700771802836     -0.03054060431859152     0.22639838549828012
2.6000000000000005        -0.09482337746884385     -0.02906074037114013     0.2263691136384369
2.6                       -0.08906121469505322     -0.03073393469675097     0.2264005157542275
2.6000000000000005        -0.0954033787585088      -0.028620162291079346    0.22633431748398397
2.6000000000000005        -0.09593010950230334     -0.028207189475974573    0.22629714413573568
2.6                       -0.09332476505840283     -0.026825106720142114    0.22607549703134905
2.6000000000000005        -0.09518039110602197     -0.023177050008841005    0.22569129295926987
2.6000000000000005        -0.09517350814415193     -0.0232024175266027      0.22569412591709734
2.6000000000000005        -0.09524279699892206     -0.02318180887792169     0.2256930169510194
2.6                       -0.0970312280745184      -0.024148959099891516    0.22584028595648015
2.6000000000000005        -0.09563056699520292     -0.026115658331726074    0.2260445819777739
2.6                       -0.09651053848447602     -0.0261861788246482      0.22607291026469506
2.6000000000000005        -0.09516960888199096     -0.023176227791736538    0.22569098615142535
2.6000000000000005        -0.09723950391054678     -0.02333407120994414     0.22574814278620614
2.6000000000000005        -0.09262306260073758     -0.023676111041617057    0.2257002248940408
2.6000000000000005        -0.0930424714696558      -0.026493107340923455    0.2260304818829671
2.6000000000000005        -0.09513648042391232     -0.023182730858815975    0.22569109790344177
2.6                       -0.0931293469004302      -0.026595279654557876    0.22604404836383005
2.6000000000000005        -0.09092984067185847     -0.024008487989488708    0.22570448018454317
2.6000000000000005        -0.09845853985168335     -0.004194809856793244    0.22342737608556507
2.6000000000000005        -0.09796013347918689     -0.0032849685514753897   0.22331829850689783
2.6000000000000005        -0.09746902603526775     -0.004704099115552742    0.22349583863706074
2.6000000000000005        -0.09517090478342732     -0.003707413563738057    0.22338733492640064
2.6                       -0.09739329666616402     -0.0022262674594933714   0.22319198738721802
2.6000000000000005        -0.09483243643745387     -0.003560621261152535    0.22337142753345515
2.6000000000000005        -0.09909826243466277     -0.005410692111230039    0.22357712893894738
2.6                       -0.09747838119084311     -0.008203828225642019    0.22392318229446617
2.6                       -0.09748272282716774     -0.008094105126925351    0.22390982729649347
2.6                       -0.0974310748480454      -0.008090993707532764    0.22390933533229762
2.6                       -0.09756048211667048     -0.008098830242608188    0.22391043291649865
2.6                       -0.09748461428576193     -0.008046303634002256    0.22390389290577462
2.6000000000000005        -0.09510854537322219     -0.010029639637215468    0.22414010912942367
2.6                       -0.09573760473009305     -0.010472498689082722    0.2241954654949241
2.6                       -0.09780348067653706     -0.007780141659616179    0.22387038062064815
2.6000000000000005        -0.09886124388004408     -0.011588908683443127    0.22434103464542765
2.6                       -0.09939398699786056     -0.010911773271406336    0.2242587516624131
2.6                       -0.09773379893884043     -0.00856708556990852     0.22396844320473705
2.6                       -0.09723025800962402     -0.011005983179251612    0.2242636041876474
2.6                       -0.09961025938164603     -0.008820216886290515    0.2239994301104839
2.6000000000000005        -0.09930747804434135     -0.011748395825501247    0.22436188576748065
2.6                       -0.09976487366633871     -0.0067232008446074885   0.22373680565019638
2.6                       -0.09744899815274885     -0.01962925586797294     0.2253064046981072
2.6000000000000005        -0.0974237034997894      -0.022513405865007757    0.22565297605735962
2.6000000000000005        -0.09788420247287039     -0.0204617425027808      0.22541372953332278
2.6000000000000005        -0.09669687782455705     -0.020694337514741125    0.22542310832420553
2.6                       -0.09828411176479628     -0.018397413455768157    0.225167716470265
2.6                       -0.09622882121089335     -0.021343170451393667    0.22549297379397362
2.6000000000000005        -0.09780215924576663     -0.01528958920184036     0.224785473293023
2.6                       -0.09744630903303836     -0.013304013325449076    0.22454401096802146
2.6                       -0.09699476687937786     -0.013834351982474062    0.22460417152377532
2.6                       -0.09891863775584003     -0.014666393712460136    0.2247194236690009
2.6                       -0.09711838792142888     -0.013000580210258933    0.22450431719953812
2.6000000000000005        -0.09821416427514587     -0.012373783704738364    0.2244328527658132
2.6                       -0.09919638081905065     -0.012582109507524083    0.2244633531728264
2.6                       -0.09667938599170733     -0.013251694294380988    0.22453138285801352
2.6                       -0.09857966470279977     -0.0167415995156083      0.2249704167417501
2.6                       -0.09671912314806239     -0.016827132603543748    0.2249611095313436
2.6000000000000005        -0.09685763744122691     -0.015323224314588418    0.22478281096915326
2.6000000000000005        -0.09559674580389377     -0.016109739598194915    0.22486495719251193
2.6                       -0.09520665728031907     -0.015389061566699514    0.22477525237765067
2.6                       -0.09571637492455101     -0.014649309701688564    0.2246906444389739
2.6                       -0.09498118451118001     -0.015716289598468255    0.22481194650973937
2.6000000000000005        -0.09757363055564622     -0.01737331044685516     0.22503663257864562
2.6                       -0.09628249057601408     -0.017273555162856266    0.2250097153857602
2.6                       -0.0953769014780382      -0.018580316705491318    0.22515368568095304
2.6                       -0.09652504048788035     -0.01915922503885757     0.22523873968176067