% Model:              Final Design Simulation.mph
% Version:            COMSOL 6.2.0.339
% Date:               Aug 24 2025, 19:55
% Dimension:          3
% Nodes:              15452
% Expressions:        1
% Description:        Slice
% x                       y                        z                        Electric potential
2                         -0.03928542909722885     -0.08608313350325086     0.45207791488160903
2                         -0.03998129123808641     -0.08672651296938355     0.45237057761395955
2                         -0.03935677714145044     -0.08585658172626469     0.4520654356899822
2                         -0.03942893843169945     -0.08891666925428288     0.4525234581731469
1.9999999999999998        -0.04247592844323177     -0.09020013216475023     0.4535862139391597
2                         -0.04275674916069713     -0.08928519758720362     0.45352430797364596
2                         -0.04264065720155831     -0.08720924301598157     0.45317128360815073
2                         -0.03947772980367009     -0.08988003583479655     0.45267835795732847
2                         -0.04235446076831386     -0.09058166768932704     0.45360712766947103
2                         -0.03927219035079594     -0.08582173962629593     0.45203685838336677
2                         -0.04330403742891148     -0.08748249561275112     0.45340178453249963
2                         -0.040057626921798845    -0.09162634187499749     0.4530976796615474
2                         -0.0427372664094632      -0.09040755532501976     0.453691808855176
2                         -0.0431147812329319      -0.09022225062361688     0.45377082905933014
2                         -0.04537987017336703     -0.08911042241538471     0.45424376038681996
2                         -0.050544844384351056    -0.08628568077127098     0.45521728146055745
2                         -0.049229204877271476    -0.08579464144980592     0.4547685682584678
2                         -0.04834910476120479     -0.08752886916408988     0.45482000445432513
2                         -0.04801199379187103     -0.08753441669123593     0.4547272443154292
2                         -0.04746118548948672     -0.08753460573857766     0.45457398755045997
2                         -0.04761125130238498     -0.08793240368473652     0.45468095196097347
2                         -0.04798314815728453     -0.0877360672295951      0.4547535903557916
2                         -0.04562532591563903     -0.08752407964813486     0.4540549883068733
2                         -0.0460486309999247      -0.08461154256880118     0.4536972497343057
2                         -0.046071516958900056    -0.0846456203476941      0.45370927680295636
2                         -0.04605508603978118     -0.08461147626331497     0.4536990121460138
2                         -0.04572142950961573     -0.08686284194675753     0.4539743253838605
2                         -0.04829165176611217     -0.085445164867988       0.45444829020956473
2                         -0.04604897187558355     -0.08460919718474434     0.4536969602767925
2                         -0.017891476895123853    -0.09440176592006788     0.4469242252271732
2                         -0.01773330592404652     -0.09607723861588355     0.44700959983947625
2                         -0.0186766705783156      -0.09504357439477862     0.44720987793826433
2                         -0.014666393712460231    -0.09891863775583974     0.4462915439658983
2                         -0.014745009776192136    -0.0987174059181773      0.4463009323219477
2                         -0.014587082576726947    -0.09880135767386856     0.44625960031590994
2                         -0.014249536871406836    -0.09897418636849067     0.4461674044271704
2                         -0.014446907556893885    -0.09859407609021278     0.44620360819793786
2                         -0.015081434873155764    -0.09885084314522093     0.44641374577089793
2                         -0.012380731501776102    -0.09772060324376733     0.4455134699407619
2                         -0.01174839582550136     -0.09930747804434104     0.44542114467419386
2                         -0.017208710504157197    -0.0966175381207422      0.44689407003903586
2                         -0.015249424973446135    -0.09582262950994008     0.44624726599563924
2                         -0.01509904989746811     -0.0966638048624983      0.4462630273682449
2                         -0.016055734975064885    -0.09783181804040618     0.44663276803115814
2                         -0.01393959709516547     -0.09668923269824237     0.445919730332201
2                         -0.01730030413800747     -0.09446573487339839     0.44675674655058656
2                         -0.03582200778337599     -0.09118168644976632     0.45180469136827717
2                         -0.03726369902296296     -0.0922580563281486      0.45237260768715853
1.9999999999999998        -0.03649656193931047     -0.09092799694956352     0.4519655989092871
2                         -0.036222298250363764    -0.09045580656349991     0.4518264580918829
2                         -0.037067395993553416    -0.09071331499312518     0.4521024719451368
2                         -0.03398340677924055     -0.08977359739719175     0.45109676243723956
2                         -0.03399176779979414     -0.0898423765541653      0.4511079783742741
2                         -0.03849957074882053     -0.09114971075343783     0.45257887082546056
2                         -0.03773103858438515     -0.09260295673302203     0.4525559971141034
2                         -0.03441066427572678     -0.09260066460363606     0.45158287697437693
1.9999999999999998        -0.0370673514723866      -0.09267838144236126     0.4523732365363022
2                         -0.03428889385190759     -0.09179884858441154     0.4514430803806453
2                         -0.03695088608999317     -0.09291701074355901     0.4523699915021891
2                         -0.03734327386141855     -0.09276572587605313     0.45246552151598
2                         -0.03459655946183139     -0.09382471994844378     0.4517954217928083
2                         -0.03272212025549956     -0.09232472682592835     0.4510524024236916
2                         -0.031740877231048306    -0.09429451998747063     0.45100734376666574
2                         -0.032216534780821066    -0.09466273688770285     0.45119267044121175
2                         -0.03181986400058689     -0.09480240637760254     0.4510920128851949
2                         -0.03141925396281004     -0.0949303394535949      0.4509870060770436
2                         -0.024947729935198112    -0.09271077709997483     0.44883286494070607
2                         -0.02685013331038087     -0.09339139474369165     0.4494618150428349
2                         -0.025746332534831776    -0.09160888454196116     0.4489535185818703
2                         -0.031550858284343945    -0.09210881185252576     0.450686567198721
2                         -0.030541267623550063    -0.09308999269640081     0.4505073532483994
2                         -0.03393775854161158     -0.08978907881653489     0.45108566832887315
2                         -0.029118106376116504    -0.09447310627693759     0.4502477155096732
2                         -0.029015593736547704    -0.09569793790942181     0.4503555377001798
1.9999999999999998        -0.017701398845963202    -0.09654448857858917     0.4470365798068998
2                         -0.01768466969201026     -0.09678947173060944     0.44705079339010134
2                         -0.017571681836915893    -0.09844407548157552     0.4471458278656223
2                         -0.018188934931168875    -0.09644257389180345     0.4471743895798143
2                         -0.02047490066408658     -0.09767275913551118     0.4479687413883187
2                         -0.020582593532477413    -0.09594220279307464     0.4478496422576405
2                         -0.01919813365446261     -0.0972709185700317      0.4475500401598076
2                         -0.020461742502780923    -0.09788420247287008     0.4479831659531822
2                         -0.02087207517529118     -0.09779210267823933     0.44809978094541
2                         -0.021936851020478737    -0.09658072505582697     0.44831676531232245
2                         -0.020048876693312942    -0.09796418433126794     0.44786375145037827
2                         -0.023334071209944348    -0.09723950391054648     0.44879832002795494
2                         -0.026812137993309827    -0.09380976037052648     0.4494926669771526
2                         -0.02671125371821762     -0.09499701430353359     0.44958743552359937
2                         -0.02710370758325849     -0.09386576917656557     0.4495845976470775
2                         -0.0271554547715962      -0.09371660832007808     0.44958430339377053
2                         -0.027333347393847494    -0.09390609089252751     0.44965816678917414
2                         -0.026590380954977077    -0.096394452688023       0.44970021784941316
2                         -0.026186178824648246    -0.0965105384844758      0.4495908034921267
2                         -0.025778734879632614    -0.09661467640250071     0.44947779404416055
2                         -0.023818168827512476    -0.09588088586739743     0.4488117166443125
2                         -0.02431469350829448     -0.09448739132064041     0.44882489631370937
2                         -0.008549770239114142    -0.09943193942796619     0.4444493285868183
2                         -0.008811864006124808    -0.09905152685307324     0.44450859203194865
2                         -0.00803189228304063     -0.0987568207538873      0.44426089589428247
2                         -0.008951340216322382    -0.09709327337859758     0.4444491293899562
2                         -0.007924444039672587    -0.09577124238876489     0.44408269153259444
2                         -0.007212887057668133    -0.09678277220294071     0.4439149182660062
2                         -0.0084008136778875      -0.09964118223858912     0.44441263502052814
2                         -0.00958761129975739     -0.09791241177774888     0.44468744118537673
2                         -0.006518770621400225    -0.0951296347518972      0.4436353828699122
2                         -0.006597593411989249    -0.09406304862140749     0.44361206977783324
2                         -0.00881837380070124     -0.09948697353876042     0.44453277565546173
2                         -0.008820216886290692    -0.09961025938164567     0.44453977298559616
2                         -0.009238528163380264    -0.0995670049048817      0.444665843017524
1.9999999999999998        -0.006610894742350328    -0.09721845167828702     0.44375743900278974
2                         -0.00619760960876666     -0.09750759355785432     0.44364351886833375
2                         -0.00628439835429004     -0.0968649873461509      0.4436420151262451
2                         -0.005884394427885707    -0.09982671938021907     0.44364837284756775
2                         -0.0030749480639247705   -0.09947729815915048     0.44277551801892967
2                         -0.004370816499012921    -0.09830751544856914     0.4431306354840421
2                         -0.0019077248859005694   -0.09759012713300372     0.44236324474759897
2                         -0.003606252710489337    -0.09754010975946317     0.44286891616370083
2                         -0.0033636042958846662   -0.09993810601815013     0.4428803606504304
2                         -0.0017220551235321091   -0.09564890856822852     0.44225315823333433
2                         -0.001053827648506537    -0.09623375394565944     0.44207013191240535
2                         -6.620182666843248E-4    -0.09711313552466361     0.44197848427211034
2                         -3.9306554348660143E-4   -0.09771677617589847     0.44191405964385577
2                         -0.0023952772763336217   -0.09956549064169348     0.4425750006874828
2                         -0.002942681120056502    -0.09977959083933864     0.4427459887929574
2                         5.508061939048736E-6     -0.09861133945781518     0.4418165737404899
2                         0.0033636042958845847    -0.09993810601815015     0.44082578423530533
2                         0.00543966011903131      -0.09829532064232037     0.44018001356679637
2                         0.005884394427885659     -0.09982671938021907     0.4400574581387842
2                         -0.0012265610487171257   -0.09531108328049089     0.442096208103271
2                         0.002944058135541355     -0.09977959083933866     0.4409506835735465
2                         0.0025919645768768076    -0.09769057995173931     0.4410216789514332
2                         0.004752153758518905     -0.09758620185604723     0.44037955169021537
2                         0.0023984443035692826    -0.0995654906416935      0.44111038268562364
2                         7.023526082976053E-4     -0.09778188403776723     0.4415884477195241
2                         0.002284998501454843     -0.09589805755027309     0.44108393499178183
2                         0.003608352077971954     -0.09640644366611262     0.44069974193346506
2                         0.002670538286650035     -0.09543914879344147     0.440964247282697
2                         -0.0025229765203529      -0.09996286039240802     0.4426238099337701
2                         -0.0029434726071481325   -0.09995667045780839     0.44275217313770937
2                         0                        -0.09999999999999969     0.44185218598851683
2                         0.002943472607148047     -0.0999566704578084      0.440953599390761
2                         0.002522976520352827     -0.09996286039240804     0.4410821280616028
2                         0.008230914156663022     -0.094312038245563       0.43935094145327025
2                         0.007426381190921908     -0.09526185244535887     0.43958660092559
2                         0.007557221834878354     -0.093993437135315       0.43954618274990354
2                         0.008400813677887435     -0.09964118223858912     0.43929603241927223
2                         0.0064829954531862785    -0.09900314932797728     0.4398740711001327
2                         0.015081434873155755     -0.09885084314522093     0.43730138861508316
2                         0.016869639557288436     -0.09787429889082727     0.43679342870560445
2                         0.01757168183691581      -0.09844407548157552     0.43657125898311594
2                         0.013518763844454561     -0.09756865078902262     0.4377859904998642
1.9999999999999998        0.014927070393666586     -0.09569035688304647     0.43741305256445573
2                         0.014800221746982024     -0.09862451175370052     0.4373901390861438
2                         0.013011742452061577     -0.09669391691932804     0.4379519516204749
2.0000000000000004        0.012904885908743077     -0.09686595536990843     0.4379797827258022
1.9999999999999998        0.015908346442341716     -0.096793560837924       0.4371039794699946
2.0000000000000004        0.0128249723895635       -0.09699461569891704     0.4380018172461623
2                         0.014166310309576787     -0.09483506898050978     0.4376501849200644
2                         0.014666393712460219     -0.09891863775583974     0.437422839566908
2                         0.01455259186264554      -0.09878476966968015     0.43745876207861845
2                         0.01424953687140683      -0.09897418636849067     0.4375467367437553
2                         0.011748395825501367     -0.09930747804434104     0.43828903126150376
2                         0.008192998378985558     -0.09870721119170364     0.43935568883035736
2                         0.010693151324867256     -0.09780884610473234     0.4386152100288725
2                         0.009238528163380208     -0.0995670049048817      0.4390434485909892
2                         0.007761544057425768     -0.0967604668648189      0.43948786680027174
2                         0.008820216886290628     -0.09961025938164567     0.4391689471595358
2                         0.00982621575493238      -0.09657764581521977     0.43888242770135477
2                         0.006966430539637888     -0.09708593337956689     0.4397212012083928
2                         0.007100802558401671     -0.09655303830303255     0.43968156687066445
2                         0.020048876693312935     -0.09796418433126794     0.43585832102959526
2                         0.017561541615831497     -0.09707213520181159     0.4366153027989116
2                         0.018161595178829572     -0.09593261555504126     0.43647659217911056
2                         0.018984393572190592     -0.09437009681941139     0.4362933421875408
2                         0.020254288798652043     -0.09758361327706087     0.4358105288964624
2                         0.021493835540771764     -0.09523604304874436     0.43554829035418696
2                         0.019574707002585078     -0.09324907397550725     0.43616753411205905
2                         0.0216844711389065       -0.09488276942809452     0.43550733531437336
2                         0.026590380954977035     -0.09639445268802302     0.43403311594218746
2                         0.028479289648521075     -0.09453075425590185     0.43360744499353815
2                         0.02901559373654767      -0.09569793790942183     0.4333812134863704
2                         0.024364509458157504     -0.09411378264906209     0.4347902338296825
2                         0.02622971552029224      -0.09231810975966653     0.43436646467968376
2                         0.026244180044241727     -0.09413980959420593     0.43425936470012705
2                         0.02408802713540915      -0.09452278709360229     0.43484497207937606
2                         0.027800729992456384     -0.09386333402310389     0.43383987618474107
2                         0.026270067538434926     -0.0961792442016898      0.43413689630869934
2                         0.024592083140172475     -0.09502639832070876     0.4346745734624902
2                         0.02583848773945798      -0.09193330448244773     0.4344960118063888
2                         0.024016060791232467     -0.09462924798532579     0.4348602430457186
2                         0.03153233413322103      -0.09462613331361362     0.4327438723079332
2                         0.029162537787786415     -0.09154111370433009     0.4336127136637006
2                         0.03182986085752274      -0.09379583041551674     0.4327234301549504
2                         0.028285548631034843     -0.09143198195227246     0.4338590786837111
2                         0.028427152674489406     -0.09369685437646061     0.43367624295380913
2                         0.031728253608940236     -0.09228148297793035     0.4328633796583805
2                         0.03141925396280883      -0.0949303394535953      0.4327558720677707
2                         0.028276384245399577     -0.09128540305661689     0.4338711955793664
1.9999999999999998        0.03230779313708177      -0.09244871633087424     0.43269038339045796
2                         0.02178161868960238      -0.09533797225294047     0.43546191733162665
2                         0.020461742502780926     -0.09788420247287008     0.4357393173508543
2.0000000000000004        0.021875849955829436     -0.09515618664295278     0.4354420873890187
2                         0.022071199799128662     -0.09543527714490409     0.4353734015055346
2                         0.02087207517529118      -0.09779210267823933     0.43562358731045236
2                         0.023334071209944338     -0.09723950391054648     0.4349278004610358
2                         0.02618617882464819      -0.09651053848447581     0.4341415339251763
2                         0.026046644394406494     -0.09638062868410008     0.43418809934280256
2                         0.02577873487963257      -0.09661467640250072     0.4342540122300702
2                         0.038925523298647256     -0.08834045307008159     0.43128351745355664
2                         0.03766860356795296      -0.08947773235457981     0.43150979852129157
2                         0.03810647885508329      -0.0877316960295077      0.4315537280506119
2                         0.031819864000586895     -0.09480240637760252     0.43265146592077014
2                         0.03221653478082249      -0.09466273688770235     0.4325518450824797
2                         0.034596559461831364     -0.0938247199484438      0.4319527324140797
2                         0.03941730945394815      -0.08976784415784901     0.4310162593363281
2                         0.03964595287701183      -0.09043147321865098     0.4308897711145116
2                         0.037684125260619664     -0.0904655455057609      0.4314113740295722
2                         0.037724306731925596     -0.0922149679813275      0.43123948912414256
2                         0.04005762692179886      -0.09162634187499749     0.43066197575331955
2                         0.03773103858438647      -0.0926029567330215      0.4312000451751185
2                         0.03729051424270509      -0.09261313701674936     0.43131751775306776
2                         0.03668677572396446      -0.09086703319457214     0.43163814821713153
2                         0.03734327386141865      -0.0927657258760531      0.4312894938761613
2                         0.03695088608999185      -0.09291701074355954     0.4313843996992119
2                         0.03606221108963846      -0.09175080133825575     0.43173246835521584
2                         0.039125467919757566     -0.08768100638717993     0.4312975453609545
2                         0.04052766100579992      -0.0882277964316821      0.43087980215560145
2                         0.041106434875724754     -0.08896936439705977     0.4306572644439298
2                         0.042127338241752126     -0.09029003034945983     0.43024752997382165
2                         0.0423544607683128       -0.09058166768932754     0.43015843420074623
2                         0.042169785857875924     -0.08773957383408941     0.43050959139969636
2                         0.04508246152458178      -0.08687360187212415     0.4298629313202512
2                         0.04266401665075666      -0.08967869357767777     0.4301719976496314
2                         0.04277038530196171      -0.0901007532616428      0.43009910274013213
2                         0.04528803006997639      -0.087136991523723       0.42978210061292393
2                         0.045665710414587134     -0.0867001952716689      0.42973666860338794
2                         0.04311478123293313      -0.09022225062361629     0.42999627935996554
2                         0.0427372664094633       -0.09040755532501973     0.43007432803515117
2                         0.045444170232149125     -0.08719799969012448     0.42973598155226916
2                         0.045599952677007345     -0.08725466962890989     0.42968811074864977
2                         0.04563326308095009      -0.08697379371232017     0.42971232846117047
2                         0.04537987017336699      -0.08911042241538472     0.42952665510678967
2                         0.04701541799972578      -0.08464658539067187     0.42964521259843497
2                         0.048501892393871024     -0.08511399392527913     0.42922262883177464
2                         0.04743474801156394      -0.08582016054548247     0.42939935516989924
2                         0.045968294667102276     -0.08679056381903533     0.42965074386402496
2                         0.04801594653982718      -0.087429428387306       0.42905300315545514
2                         0.04617711366784979      -0.08438298811589848     0.4298848374312875
2                         0.04834910476120627      -0.087528869164089       0.4289571701305197
2                         0.04936261508379987      -0.08538464045157482     0.4289733141228816
2                         0.04798314815728485      -0.08773606722959489     0.4290227458853024
2                         0.0478163935503439       -0.0876819741073249      0.42907163550406563
2                         0.0476112513023841       -0.08793240368473695     0.42909489822711505
2                         0.05054484438435132      -0.08628568077127081     0.4285623420947231
2                         0.05104462272049937      -0.08311860646783634     0.42886778308409446
2                         0.05222134605092021      -0.08443932278905983     0.4283977673904952
2                         0.0501798385630809       -0.08365998842251507     0.42900065485861294
2                         0.05026478006710515      -0.08427102047792726     0.42889875511906084
2                         0.05270303969377102      -0.08497840005196092     0.4282082521988142
2                         0.04993201702326855      -0.0818772685780004      0.4292956012631062
2                         0.06365107815760017      -0.07479849313295492     0.4273134450994847
2                         0.062021421450685905     -0.0759346139585054      0.4274612262660296
2                         0.061775240229631406     -0.07511559890022085     0.42765292002670413
2.0000000000000004        0.06254668297280183      -0.0776349838378263      0.4270563822182949
2                         0.06100580411105183      -0.07664265510941337     0.4275645162697861
2                         0.06289139023876684      -0.07290043930388329     0.42780257124198223
2                         0.0641037933985438       -0.07367039241295445     0.42741398941525816
2                         0.06004465896033431      -0.07855018535773103     0.4274582188602531
2                         0.06232165837686936      -0.07819814425874241     0.4270119678709013
2                         0.05873644734983941      -0.07918715665944577     0.4276489186991762
2                         0.060331993557273256     -0.07974992509968323     0.4271972041054595
2                         0.058297514606356474     -0.08124246832215254     0.4274272074708178
2                         0.05498836882262418      -0.08081365598057479     0.4282598019233894
2                         0.05492489217418741      -0.08045174479905697     0.428327719701688
2                         0.05597375920852361      -0.08104938774055948     0.4279946801074891
2                         0.055387023231897564     -0.07841934195511167     0.42852297034885733
2                         0.057890531144380634     -0.08121256099260751     0.4275244513497851
2                         0.0574675786222235       -0.07889628395039874     0.42798301795579086
2                         0.05453413120230627      -0.07822382684013365     0.42874477535604144
2.0000000000000004        0.05501505822768353      -0.0809658252326842      0.42823093197931894
2                         0.05795843478113998      -0.08149122552594415     0.42746532154854483
2                         0.057612179777507946     -0.08172989422260628     0.42751076958589823
2                         0.055534649756102415     -0.08316190640231248     0.4277822657722193
2                         0.052674741248956436     -0.0820981012380359      0.4286164229150108
2                         0.05277572013416955      -0.08279101281263716     0.428494613592494
2                         0.05306273891207168      -0.08476051993203713     0.42814904490663114
2                         0.05391180056828046      -0.0825582523544528      0.42825604439399445
2                         0.05341586903270167      -0.08453214657061286     0.4280968358713494
1.9999999999999998        0.050125152463263316     -0.08114972624274325     0.42934603962127804
2                         0.049892957906138485     -0.08099831258117045     0.42942122797010684
2                         0.06446180229063461      -0.0747188985140449      0.4271528213597555
2                         0.06278065574568842      -0.07765711183096795     0.42700277380114915
2                         0.06430852448943726      -0.07426999148053919     0.4272652625219664
2                         0.062977123590757        -0.07767123516842525     0.4269574066639413
2                         0.06265326918019992      -0.07793951411853527     0.42698089949477497
2                         0.06492025005371922      -0.07606156146808007     0.42681520235390547
2                         -0.08453214657061643     -0.05341586903269631     0.4556223402390489
2                         -0.08476051993203759     -0.053062738912071104    0.45556825204416507
2                         -0.08100180269702612     -0.05413692304168176     0.45516494529378776
2.0000000000000004        -0.08105167970717782     -0.054358977699179675    0.455234813795222
2                         -0.08077133279344673     -0.05420278782940026     0.4551401918339825
2                         -0.08094918921025357     -0.053918686354978096    0.4550971551353551
2                         -0.08442353023153837     -0.052874640294547755    0.4554563267429221
2                         -0.08316190640231264     -0.05553464975610236     0.4559456007988395
2                         -0.08497840005195834     -0.05270303969377543     0.4555075268179598
2                         -0.08050677947245691     -0.05405539705485888     0.4550534807801731
2                         -0.08050386845113759     -0.05156520125009937     0.45439863908452705
2                         -0.08371221330199902     -0.05063893328211524     0.45471578943889895
2                         -0.07980485806255065     -0.05176700964736761     0.45432590334758954
2                         -0.08451616558483882     -0.05040682754473405     0.45479451544379945